# t (s)	mx ()	my ()	mz ()
0	0.099875234	0.94881475	0.29962572
1.0026666855022206e-10	0.15767255	0.9768845	0.14279218
2.0041205508168958e-10	0.15791875	0.98597735	0.051113892
3.0003709070147924e-10	0.12538569	0.9919723	-0.0028205148
4.002697235185839e-10	0.07251874	0.9966057	-0.035523392
5.004706784807453e-10	0.006530495	0.99828374	-0.055880915
6.000818527545483e-10	-0.068034396	0.99514264	-0.06912412
7.002731910754394e-10	-0.14935556	0.98551714	-0.07828908
8.005165983209573e-10	-0.23485132	0.96813786	-0.08475612
9.001470634325934e-10	-0.32174152	0.94239235	-0.089150086
1.000298273976655e-09	-0.4086879	0.9077759	-0.091765426
1.1005523926329372e-09	-0.4929641	0.8647766	-0.0926965
1.2002248793950864e-09	-0.57191014	0.81475866	-0.09212511
1.3004104085951e-09	-0.64479005	0.75858915	-0.09034397
1.4000579043918325e-09	-0.7098943	0.69836634	-0.08776448
1.5002853045618235e-09	-0.7676298	0.63477355	-0.08478554
1.600524009926589e-09	-0.81777525	0.5691749	-0.08181882
1.7001687419627738e-09	-0.8605617	0.50260454	-0.079205856
1.800367890432397e-09	-0.8970655	0.43453398	-0.07715738
1.9000549046393154e-09	-0.9274311	0.36560607	-0.07585638
2.0002607795853005e-09	-0.9523735	0.2947922	-0.07538468
2.1004082089664886e-09	-0.97190744	0.22202949	-0.07578961
2.2000801914427125e-09	-0.9859495	0.14713031	-0.077048026
2.3003166284227327e-09	-0.9943358	0.0688559	-0.07909941
2.4004471905422984e-09	-0.99642277	-0.012564421	-0.08178482
2.5000878482085033e-09	-0.99152964	-0.09673898	-0.08484725
2.6003376006290706e-09	-0.9787873	-0.18408239	-0.08798169
2.700502438899868e-09	-0.95753515	-0.2729253	-0.09075554
2.8001379748493394e-09	-0.9275991	-0.3612395	-0.092747584
2.900366670136798e-09	-0.8888092	-0.44801813	-0.093656875
3.000049948538317e-09	-0.8423607	-0.5302254	-0.093330435
3.100214860487235e-09	-0.78903496	-0.6069381	-0.09183974
3.2004186225320615e-09	-0.7305226	-0.67653906	-0.08944253
3.3000991582800154e-09	-0.66865313	-0.738098	-0.08652441
3.4003284581667078e-09	-0.6039747	-0.7922406	-0.083444014
3.500498630667304e-09	-0.53769714	-0.83893937	-0.0805683
3.600168989088644e-09	-0.47055453	-0.8786009	-0.07818209
3.700416335084706e-09	-0.4018938	-0.91222775	-0.076456346
3.800059207412402e-09	-0.3323204	-0.9399107	-0.07553524
3.900233340740849e-09	-0.26064652	-0.96228373	-0.075472735
4.00048301336631e-09	-0.18668467	-0.9792814	-0.07628942
4.100122398275904e-09	-0.110463835	-0.99066484	-0.077930525
4.200263917059562e-09	-0.03075242	-0.9961481	-0.080304325
4.300507845390607e-09	0.052298106	-0.9950075	-0.08321473
4.400167898798345e-09	0.13784055	-0.9865177	-0.08635006
4.5003025522491325e-09	0.2259996	-0.969828	-0.0893649
4.600509872863844e-09	0.31508285	-0.9443839	-0.09182198
4.7001952023802164e-09	0.40272808	-0.91027784	-0.09332882
4.800400061031733e-09	0.48777637	-0.8676115	-0.09365517
4.9000321395085725e-09	0.56735146	-0.8178688	-0.0927583
5.0002273819877036e-09	0.6408231	-0.7618897	-0.09079739
5.100485559437151e-09	0.7068316	-0.7014243	-0.088095285
5.200157961197141e-09	0.7646984	-0.6382642	-0.085061364
5.300329990064186e-09	0.81523955	-0.5727676	-0.0820392
5.400558146532711e-09	0.8586426	-0.50584996	-0.07935929
5.500242740721812e-09	0.8952818	-0.43817392	-0.07727134
5.600423353717614e-09	0.92609394	-0.36896473	-0.07591408
5.7000568612949375e-09	0.95117205	-0.29863882	-0.07539574
5.800280036650195e-09	0.9710083	-0.22593741	-0.07575085
5.9005000034830835e-09	0.98540604	-0.1507619	-0.07697225
6.0001179236200335e-09	0.9940405	-0.07312667	-0.078973316
6.10029638398937e-09	0.9964814	0.008158671	-0.08163069
6.200542111577374e-09	0.9919294	0.092693165	-0.084698796
6.300171019210641e-09	0.97967494	0.17938462	-0.087820485
6.40031866479128e-09	0.9588932	0.26816538	-0.09062366
6.500564164880833e-09	0.9292215	0.3570682	-0.092675544
6.600225018339514e-09	0.8910713	0.44350904	-0.093639575
6.7003845404461506e-09	0.8447754	0.52636385	-0.093374334
6.80001998671305e-09	0.7920333	0.6030053	-0.09194543
6.900257143387871e-09	0.73373836	0.6730311	-0.08958701
7.000496052946533e-09	0.6716768	0.7353298	-0.08667035
7.100145098294826e-09	0.6074734	0.789543	-0.08360611
7.200315049277466e-09	0.5412689	0.8366243	-0.08071186
7.3005573796010295e-09	0.4737975	0.876846	-0.07828247
7.400236764886057e-09	0.40558568	0.91058475	-0.07652897
7.500395009967951e-09	0.3357284	0.93869555	-0.07556045
7.60003444101147e-09	0.26453653	0.9612218	-0.07545371
7.700279776392362e-09	0.19071063	0.97850955	-0.076223835
7.8004678600707e-09	0.11421955	0.990246	-0.077833414
7.900081293570796e-09	0.03509181	0.996016	-0.080161944
8.000277106550807e-09	-0.04774665	0.9952505	-0.083048835
8.100508647955741e-09	-0.13364038	0.98710954	-0.08619808
8.200129182992135e-09	-0.22126321	0.97093475	-0.08921452
8.300293289840104e-09	-0.31030527	0.94597703	-0.09171103
8.400545961383683e-09	-0.39854786	0.91212225	-0.0932819
8.500205794450307e-09	-0.48333853	0.8700916	-0.093669504
8.60035647130805e-09	-0.56362504	0.8204346	-0.09282823
8.70003066662709e-09	-0.6370756	0.7650115	-0.09092438
8.800280411758048e-09	-0.70349365	0.70475227	-0.08825246
8.900447108784422e-09	-0.7620461	0.6414077	-0.08521203
9.000107247917407e-09	-0.81270826	0.5763299	-0.082195505
9.100363101993813e-09	-0.856493	0.5094584	-0.07948965
9.200023147134394e-09	-0.8934593	0.44185847	-0.07736647
9.300179765828754e-09	-0.9245766	0.3727366	-0.07596654
9.400421554481834e-09	-0.95008695	0.30206805	-0.075400904
9.500098042986181e-09	-0.9700859	0.22987454	-0.07570968
9.600246357536997e-09	-0.9847702	0.15489845	-0.07688497
9.700436005786487e-09	-0.9937584	0.07697697	-0.078859635
9.800118872696938e-09	-0.99652064	-0.003740615	-0.08147609
9.900300725294585e-09	-0.9923669	-0.08805788	-0.084528044
1.0000451049059813e-08	-0.98046684	-0.17508475	-0.087671675
1.0100122163788584e-08	-0.96022904	-0.26339453	-0.09048911
1.0200359542006474e-08	-0.9310362	-0.3523366	-0.092590824
1.0300501765762686e-08	-0.8931352	-0.43934554	-0.09362045
1.0400160917046368e-08	-0.84745073	-0.52203983	-0.093419984
1.0500411801465022e-08	-0.79469085	-0.5994856	-0.09203728
1.0600077761661435e-08	-0.73695433	-0.66948926	-0.08973036
1.0700249558141379e-08	-0.6751019	-0.7321666	-0.08683549
1.0800484355129687e-08	-0.61062634	-0.7870906	-0.08375282
1.0900173859617856e-08	-0.5448091	-0.834308	-0.0808556
1.1000371825019224e-08	-0.47742715	-0.8748633	-0.078396715
1.1100010284098308e-08	-0.4093062	-0.90891045	-0.076604515
1.1200228075162563e-08	-0.33948672	-0.93733895	-0.07559061
1.1300463488890262e-08	-0.2679661	-0.9602715	-0.07543903
1.1400089293455704e-08	-0.19471946	-0.9777235	-0.07616083
1.1500253669156164e-08	-0.11840298	-0.9897622	-0.07772707
1.16005020201602e-08	-0.038933977	-0.99588317	-0.08003697
1.1700143573184762e-08	0.043285664	-0.9954685	-0.08288668
1.1800275111106863e-08	0.1289464	-0.98774946	-0.08602768
1.1900513849104064e-08	0.21702409	-0.97190493	-0.089078546
1.2000179458377566e-08	0.30561635	-0.9475147	-0.09159958
1.2100338791857202e-08	0.39387506	-0.9141573	-0.09322629
1.2200530328123319e-08	0.47931805	-0.8723134	-0.09367937
1.2300219280735848e-08	0.55952567	-0.82322866	-0.09290192
1.2400436502272014e-08	0.6337311	-0.76777184	-0.09103526
1.250008048616188e-08	0.70013636	-0.70806813	-0.08840841
1.2600292918643517e-08	0.75913185	-0.64483154	-0.08537644
1.2700545625119041e-08	0.8104704	-0.5794517	-0.08233347
1.2800193031789687e-08	0.85433483	-0.5130466	-0.07962104
1.290038805558683e-08	0.89182013	-0.44514006	-0.077453084
1.3000069382215922e-08	0.9230808	-0.37641117	-0.076020084
1.31002859948555e-08	0.9488745	-0.3058493	-0.07540896
1.3200443799986365e-08	0.9692413	-0.23341699	-0.0756747
1.3300114427922446e-08	0.98413277	-0.1589336	-0.0768019
1.3400344648623367e-08	0.99343604	-0.08114367	-0.0787381
1.3500477017268222e-08	0.99653894	-0.00022640984	-0.08133806
1.36001232287885e-08	0.9927769	0.08348559	-0.0843596
1.3700371089916203e-08	0.9812948	0.17047293	-0.087511085
1.3800018933633179e-08	0.9615167	0.25870737	-0.09035485
1.3900158938460798e-08	0.93282425	0.3476035	-0.09250307
1.4000393475813706e-08	0.89533985	0.43484372	-0.09359647
1.4100077044192123e-08	0.85003746	0.51781213	-0.0934611
1.4200247731539589e-08	0.7976435	0.5955372	-0.092137255
1.430042811943104e-08	0.7398421	0.6662797	-0.08985808
1.4400117810596003e-08	0.6784469	0.7290485	-0.086996585
1.450035441330577e-08	0.6140811	0.78438	-0.08391426
1.4600014936722862e-08	0.54835767	0.8319645	-0.081001125
1.4700177721987064e-08	0.48105946	0.8728595	-0.078513056
1.4800426565128782e-08	0.4125801	0.90742195	-0.07667298
1.4900095995772317e-08	0.34321564	0.93597585	-0.07562301
1.5000252677419966e-08	0.27185288	0.95917815	-0.07542474
1.5100445897716586e-08	0.19831207	0.9770045	-0.07610631
1.520012710975098e-08	0.122509316	0.98926973	-0.077624545
1.5300321066067453e-08	0.043254297	0.9957159	-0.07989763
1.5400464017386074e-08	-0.039214622	0.9956497	-0.08273911
1.5500133310990105e-08	-0.1243391	0.98835564	-0.08585993
1.5600367364180805e-08	-0.21231703	0.97295934	-0.08892608
1.570050554802441e-08	-0.3013165	0.9489025	-0.09149514
1.5800157597986824e-08	-0.38921684	0.9161581	-0.09316754
1.5900406231947648e-08	-0.474912	0.87472093	-0.09368678
1.60000741301789e-08	-0.555402	0.82600975	-0.09297262
1.610024025917573e-08	-0.6299435	0.7708687	-0.09115807
1.6200482443386822e-08	-0.697137	0.71100426	-0.08854592
1.6300169588648135e-08	-0.7562131	0.6482297	-0.08553988
1.640037931336922e-08	-0.80792683	0.5829692	-0.08248991
1.650003996004842e-08	-0.85216475	0.51662046	-0.07975362
1.6600280092347787e-08	-0.8900032	0.44874206	-0.077550165
1.6700487131121577e-08	-0.9217213	0.37971467	-0.07607026
1.680011564674888e-08	-0.9476387	0.30965006	-0.07541957
1.690031895885729e-08	-0.96829987	0.23729892	-0.07563864
1.700000256509293e-08	-0.9834819	0.16294548	-0.07672143
1.7100184962927962e-08	-0.99309224	0.08535558	-0.07861689
1.7200335770874805e-08	-0.99654084	0.0045969724	-0.08118687
1.730000925858104e-08	-0.9931606	-0.0789754	-0.08419348
1.7400232471719237e-08	-0.9821083	-0.16581452	-0.08734788
1.750036328429602e-08	-0.96267337	-0.25441894	-0.09023025
1.760001324666017e-08	-0.934569	-0.3429139	-0.09241317
1.7700266450856608e-08	-0.8975298	-0.4303152	-0.09356893
1.7800437431418488e-08	-0.8523887	-0.51392853	-0.09349583
1.7900068977101788e-08	-0.8005888	-0.591558	-0.09223478
1.8000311476104334e-08	-0.7429997	-0.6627383	-0.08999659
1.810052762901274e-08	-0.6814437	-0.7262305	-0.08714077
1.8200175460240696e-08	-0.6175631	-0.781623	-0.08407765
1.8300374469083235e-08	-0.5515578	-0.82983243	-0.081133574
1.8400067233587144e-08	-0.48463193	-0.870869	-0.07862941
1.850028557644592e-08	-0.41623488	-0.90574324	-0.076751605
1.8600449282056722e-08	-0.34659898	-0.9347245	-0.075654544
1.870012545776905e-08	-0.2756734	-0.9580868	-0.07541317
1.8800360581104795e-08	-0.20222798	-0.9762049	-0.07604903
1.8900499998204142e-08	-0.12622091	-0.9888096	-0.07753353
1.9000138410642813e-08	-0.047566872	-0.9955301	-0.07975991
1.9100389876292123e-08	0.034819983	-0.9958266	-0.08258033
1.9200034709830558e-08	0.11977581	-0.98893434	-0.08569337
1.9300166653502993e-08	0.20756502	-0.9739997	-0.08877064
1.940039826697262e-08	0.2966296	-0.950391	-0.091379
1.9500071655968025e-08	0.38463378	-0.9180997	-0.093106575
1.96002390738093e-08	0.47045636	-0.8771266	-0.093690716
1.9700422503534485e-08	0.5516459	-0.82851714	-0.093034044
1.980011044977556e-08	0.6261816	-0.77391434	-0.091277085
1.9900336575703413e-08	0.69377154	-0.71426964	-0.08869816
2.0000506027794032e-08	0.7535292	-0.6513274	-0.085689045
2.0100165447904558e-08	0.8053397	-0.58651406	-0.08264864
2.020042460876636e-08	0.850198	-0.51983035	-0.079874136
2.0300089096379272e-08	0.8881404	-0.4523975	-0.07765086
2.0400245252508766e-08	0.92015755	-0.38347325	-0.07612966
2.050047341909191e-08	0.9465122	-0.31307015	-0.07543127
2.0600154977804834e-08	0.9673363	-0.24120288	-0.075604774
2.0700322119515813e-08	0.9828704	-0.16662244	-0.07664951
2.0800496467232433e-08	0.9927637	-0.08918698	-0.078508064
2.09001751113734e-08	0.99652326	-0.008974415	-0.08103643
2.1000377357289863e-08	0.9934908	0.074883856	-0.08404289
2.1100515818748733e-08	0.98283637	0.16153127	-0.08719699
2.1200180723993847e-08	0.96393263	0.24966264	-0.090090156
2.1300424359877894e-08	0.9361099	0.33871192	-0.092330195
2.140006133586496e-08	0.8997288	0.42570895	-0.093537435
2.1500221824093464e-08	0.85500276	0.5095638	-0.09353143
2.160047736241369e-08	0.8031977	0.587999	-0.092319235
2.170014929840999e-08	0.7461735	0.6591445	-0.09013455
2.1800315721146442e-08	0.6848252	0.72302276	-0.087303184
2.1900531681222682e-08	0.62069225	0.77912366	-0.08422502
2.2000220024133758e-08	0.55509686	0.82745343	-0.081281364
2.210043215832886e-08	0.48787993	0.8690426	-0.07873686
2.2200065827380507e-08	0.41994008	0.9040228	-0.07683362
2.2300253887661937e-08	0.35036358	0.9333154	-0.075692005
2.2400510880559235e-08	0.27911857	0.9570882	-0.075404845
2.2500150328896188e-08	0.2062294	0.97537076	-0.07599284
2.260030063824406e-08	0.13036709	0.98827857	-0.07743372
2.2700545115020503e-08	0.05139611	0.9953491	-0.079638794
2.2800200971230563e-08	-0.030338192	0.9959868	-0.08241897
2.2900333383816695e-08	-0.11556323	0.9894495	-0.08553926
2.3000548433316344e-08	-0.20333204	0.97490615	-0.08863093
2.310022412094387e-08	-0.29188198	0.951873	-0.091258846
2.320040159354352e-08	-0.38040754	0.91986656	-0.093047574
2.3300035260065182e-08	-0.465957	0.87952673	-0.093691066
2.3400264943774254e-08	-0.5474784	0.831271	-0.09309889
2.3500494140428782e-08	-0.622767	0.77665293	-0.09138258
2.3600145018798122e-08	-0.69035494	0.7175535	-0.08885047
2.3700339999393653e-08	-0.7505454	0.6547412	-0.08585361
2.3800017615579414e-08	-0.80276394	0.5900111	-0.082806215
2.3900268662539253e-08	-0.847991	0.5233999	-0.08000973
2.4000431785752736e-08	-0.88644826	0.45568576	-0.07774327
2.410007044116473e-08	-0.91859704	0.38718095	-0.07619069
2.420031372957751e-08	-0.9452499	0.31685323	-0.07544658
2.430051710014165e-08	-0.9664548	0.24471557	-0.07557637
2.4400142538863193e-08	-0.9821808	0.17067014	-0.0765724
2.450032978330591e-08	-0.9923862	0.093386896	-0.07839042
2.4600009363211107e-08	-0.99648637	0.013346556	-0.08088718
2.470019664228059e-08	-0.993838	-0.070332274	-0.08387548
2.4800343031065152e-08	-0.9836095	-0.15685341	-0.08703135
2.4900014960253792e-08	-0.96516246	-0.24492279	-0.08994859
2.500025961573637e-08	-0.93781376	-0.3339971	-0.09223437
2.5100402082245727e-08	-0.901684	-0.42156228	-0.09350608
2.5200056931550036e-08	-0.85757196	-0.5052246	-0.09356319
2.5300313633989416e-08	-0.80610514	-0.58399355	-0.092411175
2.540050823550152e-08	-0.7490269	-0.65588367	-0.09025746
2.5500150569978673e-08	-0.6881695	-0.7198207	-0.08746348
2.5600372382043693e-08	-0.62415206	-0.7763363	-0.08438854
2.570006720209359e-08	-0.5586313	-0.8250555	-0.08143028
2.5800254537799516e-08	-0.49149218	-0.86699235	-0.07885813
2.5900432087215914e-08	-0.42323932	-0.9024752	-0.0769086
2.6000119432726074e-08	-0.354081	-0.9319068	-0.07573146
2.6100340691321922e-08	-0.2829588	-0.95595914	-0.07539793
2.6200487525618926e-08	-0.20981717	-0.97460824	-0.07594447
2.6300144557677728e-08	-0.13447145	-0.9877354	-0.0773369
2.6400392106642954e-08	-0.055667263	-0.99512976	-0.07950501
2.65000279460214e-08	0.025878364	-0.9961263	-0.082259044
2.6600166663924326e-08	0.11095432	-0.9899923	-0.08537034
2.6700408458333222e-08	0.19864053	-0.9758884	-0.08847475
2.680007091694638e-08	0.28715152	-0.95332414	-0.09113674
2.6900216436397696e-08	0.375724	-0.9217982	-0.09297912
2.700043543142428e-08	0.4619525	-0.8816385	-0.093688354
2.71001187720948e-08	0.5433019	-0.8340012	-0.09316039
2.7200305617460804e-08	0.61892354	-0.7797065	-0.09149844
2.7300488242586527e-08	0.68726027	-0.7205014	-0.08898646
2.7400167229479044e-08	0.74753565	-0.65815336	-0.086018205
2.7500416191020026e-08	0.8004354	-0.5931451	-0.08294825
2.7600081247740476e-08	0.84575176	-0.5269875	-0.08014765
2.77002435482189e-08	0.88455313	-0.45933303	-0.077847786
2.780048205809336e-08	0.91719425	-0.39047825	-0.07624699
2.7900155399338737e-08	0.9439726	-0.3206302	-0.07546437
2.8000330211271142e-08	0.9654579	-0.24862352	-0.07554711
2.8100509313178792e-08	0.981548	-0.17429739	-0.076505184
2.8200191124209708e-08	0.9919937	-0.097555965	-0.07827534
2.830038872880196e-08	0.99643695	-0.017263934	-0.08075438
2.8400526213564516e-08	0.9941336	0.066222146	-0.08372448
2.850019237728755e-08	0.9843559	0.15220048	-0.08686577
2.860042944151008e-08	0.9662374	0.24069996	-0.08982086
2.8700060169795283e-08	0.9395033	0.32924753	-0.09213503
2.880021425460504e-08	0.9038311	0.4169516	-0.093467966
2.8900459574929358e-08	0.8598507	0.50133437	-0.09358865
2.900014754792123e-08	0.808998	0.57996684	-0.092500314
2.910030567081578e-08	0.7522026	0.65222096	-0.09039296
2.920051323771887e-08	0.6911758	0.7169167	-0.087607294
2.9300208729771682e-08	0.62760943	0.7735251	-0.0845525
2.9400434050204888e-08	0.56181735	0.82287484	-0.08156564
2.9500068437084067e-08	0.4951068	0.8649206	-0.078981414
2.960025562671079e-08	0.42690808	0.90073663	-0.07699416
2.9700509866572212e-08	0.35742635	0.93062437	-0.07576905
2.9800152294929157e-08	0.28680605	0.954811	-0.0753935
2.990030054933875e-08	0.21378711	0.9737479	-0.075893156
3.0000542183684135e-08	0.13814126	0.9872349	-0.077251986
3.010020717953862e-08	0.059954487	0.99489105	-0.07937216
3.020034436163148e-08	-0.021835443	0.9962352	-0.08211465
3.030054732337422e-08	-0.10682498	0.9904602	-0.08521876
3.040022493847335e-08	-0.19391473	0.976854	-0.08831612
3.0500409474665e-08	-0.28285775	0.9546192	-0.09102388
3.0600032242598885e-08	-0.37103462	0.92370474	-0.092907414
3.0700234109270796e-08	-0.45743054	0.88399553	-0.093681864
3.080047674417668e-08	-0.5395068	0.8364565	-0.093213275
3.0900119005629295e-08	-0.6150605	0.7827448	-0.09161181
3.1000286005267226e-08	-0.68379414	0.7237735	-0.089136556
3.1100544016872236e-08	-0.7448169	0.66120875	-0.08616568
3.12002332505035e-08	-0.79780304	0.59665745	-0.08310833
3.1300411320708165e-08	-0.8437122	0.5302256	-0.080273494
3.140006714818722e-08	-0.88264453	0.4629693	-0.07795407
3.15003084868571e-08	-0.91560346	0.3941779	-0.076312415
3.160051277283124e-08	-0.9428059	0.32403708	-0.07548255
3.1700133316082016e-08	-0.9644438	0.25253233	-0.07552029
3.1800344666552366e-08	-0.98083	0.1783189	-0.07643275
3.190002500428837e-08	-0.9915819	0.10173776	-0.07816166
3.200019290297258e-08	-0.99636346	0.021643365	-0.08060696
3.210035318960673e-08	-0.9944395	-0.061692666	-0.083558306
3.220002961622725e-08	-0.98508054	-0.14754264	-0.086699225
3.230024302737243e-08	-0.96742475	-0.23594451	-0.08967526
3.240038700159197e-08	-0.9410054	-0.32496038	-0.092042886
3.2500051194204465e-08	-0.9059448	-0.41235232	-0.0934265
3.2600307144449375e-08	-0.86237586	-0.49697614	-0.093613766
3.2700472152773436e-08	-0.8116106	-0.5762937	-0.092578694
3.2800125952921746e-08	-0.7553529	-0.6485519	-0.09052591
3.2900367555109816e-08	-0.69449306	-0.71368396	-0.08776556
3.300006059180647e-08	-0.6310518	-0.77070063	-0.08471624
3.31002299674623e-08	-0.565379	-0.8204153	-0.081718184
3.320046457524364e-08	-0.49832577	-0.86305845	-0.07909276
3.3300153624869016e-08	-0.43052253	-0.8990057	-0.07708065
3.340032839611518e-08	-0.36116827	-0.92917365	-0.07581345
3.350049526844106e-08	-0.29026657	-0.9537636	-0.07539167
3.360017986614561e-08	-0.21770084	-0.9728831	-0.075844906
3.370039217786521e-08	-0.14222464	-0.9866613	-0.07715942
3.3800012764185636e-08	-0.06424003	-0.9946338	-0.07924087
3.390018165966245e-08	0.017401582	-0.9963357	-0.081957
3.400042956701608e-08	0.10227232	-0.9909557	-0.08505143
3.4100068726032924e-08	0.18921705	-0.9777905	-0.08815712
3.420020953948251e-08	0.27808422	-0.9560345	-0.090896174
3.430044142425359e-08	0.36685982	-0.925379	-0.09284093
3.440011420928734e-08	0.45296487	-0.88629484	-0.093671955
3.4500288015712246e-08	0.53526366	-0.8391733	-0.09326905
3.460047862775588e-08	0.61157423	-0.785461	-0.0917115
3.470017842642265e-08	0.68036735	-0.7269779	-0.08928263
3.480038980510522e-08	0.7417761	-0.66459644	-0.08632924
3.490003874930539e-08	0.79514396	-0.6001728	-0.083269455
3.5000251753364933e-08	0.8414482	-0.5337882	-0.080413505
3.510050121535929e-08	0.8809395	-0.46618694	-0.07804988
3.5200146170539395e-08	0.91399974	-0.39786562	-0.07638003
3.530031632344419e-08	0.94149	-0.3278312	-0.07550521
3.5400568867841054e-08	0.96353656	-0.2559743	-0.075498775
3.550022122690805e-08	0.9801022	-0.18230107	-0.07636322
3.56003627358341e-08	0.99119455	-0.105516195	-0.07806049
3.570000562242364e-08	0.9962708	-0.026005963	-0.08046128
3.5800256543675e-08	0.9947201	0.05723678	-0.08339511
3.590041123598912e-08	0.9857111	0.14336637	-0.08654928
3.600003488186262e-08	0.9685914	0.23117232	-0.089527346
3.610026648352328e-08	0.94262236	0.32027435	-0.09193961
3.620047625475623e-08	0.9078051	0.40825337	-0.0933867
3.6300109373157214e-08	0.86490154	0.49256626	-0.09363554
3.6400300706339714e-08	0.81447506	0.5722264	-0.0926623
3.6500557362610786e-08	0.75813264	0.64528453	-0.090642
3.660021005654046e-08	0.6978091	0.71042234	-0.08792333
3.670038061774376e-08	0.6341859	0.7681065	-0.08486571
3.680004580404129e-08	0.56892365	0.8179449	-0.081871234
3.690029663970189e-08	0.50192225	0.8609589	-0.07921894
3.700047857128812e-08	0.43384084	0.89740074	-0.07716201
3.71001174193476e-08	0.36492613	0.9276988	-0.075860545
3.720033685621453e-08	0.29408118	0.952593	-0.075392045
3.730002115075533e-08	0.22163537	0.9719968	-0.07579876
3.740019096309737e-08	0.1463386	0.98606586	-0.07706821
3.750035332940272e-08	0.06808964	0.9943867	-0.079124235
3.7600031149078254e-08	-0.01298712	0.9964161	-0.08180078
3.7700244751827614e-08	-0.09766966	0.9914352	-0.084882066
3.7800376453929385e-08	-0.18493296	0.97862417	-0.08801104
3.790003337829194e-08	-0.2733318	0.9574181	-0.09076673
3.800028092968739e-08	-0.36217934	0.92723054	-0.09276347
3.810044296189596e-08	-0.44886804	0.8883797	-0.093659796
3.820009248778879e-08	-0.5309979	0.8418746	-0.09332152
3.830033739862894e-08	-0.60770524	0.78844655	-0.091819145
3.840001966456204e-08	-0.67688555	0.7302032	-0.089428656
3.850019686808236e-08	-0.738691	0.668002	-0.086493626
3.8600405249620744e-08	-0.79274535	0.6033164	-0.08341424
3.870009633074022e-08	-0.8391665	0.5373448	-0.0805548
3.8800313856235484e-08	-0.8789937	0.4698244	-0.078160144
3.8900478454288517e-08	-0.912531	0.40120783	-0.07644334
3.900015992883053e-08	-0.94016856	0.33159223	-0.07553017
3.9100401522797296e-08	-0.96249926	0.25984913	-0.07547684
3.920003745803923e-08	-0.97935027	0.18632102	-0.07629524
3.930018838753668e-08	-0.9907497	0.109687164	-0.077950545
3.9400439470959503e-08	-0.9961731	0.02985474	-0.08033375
3.950008735595339e-08	-0.9949835	-0.052727662	-0.08323032
3.960021862787374e-08	-0.98639506	-0.1386944	-0.086380914
3.970044725412292e-08	-0.9696023	-0.22695288	-0.08939508
3.980012412139319e-08	-0.9442213	-0.3155656	-0.09183319
3.9900286910463345e-08	-0.90988386	-0.4036142	-0.09333849
4.000048342676821e-08	-0.8671403	-0.4886137	-0.093651995
4.0100168771521544e-08	-0.8173019	-0.56817013	-0.0927423
4.020039264941675e-08	-0.7612511	-0.64158523	-0.09077076
4.0300032550520005e-08	-0.7011294	-0.70712596	-0.08808075
4.0400229259333286e-08	-0.6376198	-0.7652394	-0.08502986
4.050049605112549e-08	-0.5720448	-0.8157503	-0.08200701
4.060015008590943e-08	-0.5055012	-0.8588492	-0.079346284
4.0700305765482655e-08	-0.43749723	-0.89561445	-0.07725378
4.080054157986002e-08	-0.3682366	-0.9263849	-0.07590409
4.090021968810623e-08	-0.29786092	-0.9514162	-0.075394884
4.1000389032633484e-08	-0.2251749	-0.9711849	-0.07575928
4.110001610745058e-08	-0.15042412	-0.98545706	-0.07697971
4.120025469890643e-08	-0.07228134	-0.9941004	-0.07899868
4.1300448307773746e-08	0.0090514375	-0.9964712	-0.08166219
4.140006152494411e-08	0.09307575	-0.9918922	-0.08471292
4.150026040326165e-08	0.18027908	-0.9795076	-0.087851256
4.160049552032816e-08	0.26914677	-0.9586153	-0.0906509
4.170012048064828e-08	0.3574928	-0.9290573	-0.09268286
4.180029222608344e-08	0.44435358	-0.8906498	-0.093643054
4.190054227148233e-08	0.5272312	-0.8442351	-0.09336489
4.200021205842433e-08	0.6038275	-0.7914089	-0.09192395
4.210036742292838e-08	0.67371583	-0.733113	-0.08955951
4.220002174316187e-08	0.7355937	-0.6713896	-0.08665711
4.230027084965823e-08	0.7900764	-0.606784	-0.08357476
4.240048219847856e-08	0.8371004	-0.5405369	-0.08068289
4.2500121258375865e-08	0.8770281	-0.47346228	-0.07827245
4.260031783224659e-08	0.9108969	-0.4048873	-0.07651529
4.27000021321647e-08	0.9388313	-0.33534923	-0.075557604
4.2800213469952115e-08	0.9614426	-0.26373258	-0.075457335
4.290036038535171e-08	0.978656	-0.18995336	-0.076235786
4.300002150046229e-08	0.9902886	-0.11384325	-0.07784283
4.3100266982095164e-08	0.9960451	-0.034187794	-0.0801913
4.320040333640992e-08	0.99520475	0.048636243	-0.08308111
4.3300038084442564e-08	0.98705405	0.13403954	-0.08621254
4.340028840505277e-08	0.9707111	0.22222888	-0.089245416
4.350046537892686e-08	0.94565296	0.3112836	-0.09173411
4.360008989527776e-08	0.9119415	0.39895967	-0.09328674
4.370030199581217e-08	0.86961854	0.48418936	-0.09366699
4.38005460022056e-08	0.81984264	0.56448793	-0.09281205
4.390019249149893e-08	0.7643774	0.6378399	-0.09089829
4.400035560552665e-08	0.70413107	0.70411915	-0.088222586
4.410002809255338e-08	0.6410801	0.7623237	-0.08519567
4.4200288263303717e-08	0.57559776	0.8132304	-0.08216268
4.430046542171718e-08	0.50876635	0.8569069	-0.079463996
4.4400111007136914e-08	0.4411653	0.8938038	-0.07734806
4.45003640117723e-08	0.37196308	0.9248892	-0.07595543
4.460002950683886e-08	0.30168718	0.9502082	-0.075400256
4.470017918610287e-08	0.22913365	0.9702608	-0.075717404
4.480038981599522e-08	0.15408263	0.984897	-0.07690223
4.490006984094913e-08	0.07653228	0.99379176	-0.07887292
4.5000234705312676e-08	-0.0046019433	0.9965145	-0.08150633
4.510039951849188e-08	-0.08893644	0.99228555	-0.08456047
4.52000786338926e-08	-0.17557232	0.98037815	-0.08768854
4.530028546387608e-08	-0.26436406	0.9599596	-0.09051649
4.5400436270165304e-08	-0.35322064	0.9306992	-0.09260676
4.5500102658627055e-08	-0.43979484	0.89291364	-0.09362263
4.5600351236686655e-08	-0.522937	0.8468981	-0.093410954
4.570000921894338e-08	-0.5998726	0.7943998	-0.09202764
4.580018229569575e-08	-0.6701746	0.73633444	-0.089703314
4.590042375568193e-08	-0.7328125	0.67440504	-0.086802505
4.600009503099677e-08	-0.7873655	0.61027414	-0.08373704
4.6100326743212265e-08	-0.83478194	0.54408735	-0.08082675
4.620047878155757e-08	-0.8752489	0.47672406	-0.078374855
4.630013335066679e-08	-0.9092388	0.40857965	-0.07658984
4.640038808390099e-08	-0.9376176	0.3387186	-0.07558431
4.6500044657892224e-08	-0.96037453	0.26759607	-0.07544041
4.6600182909498324e-08	-0.97787493	0.19395399	-0.07617247
4.670040682862019e-08	-0.9898609	0.11756177	-0.077748045
4.6800081236093e-08	-0.99589807	0.03852261	-0.08005007
4.690023622189113e-08	-0.9954281	-0.04414515	-0.082917765
4.700040767260554e-08	-0.9876255	-0.12986891	-0.08606121
4.710009025059827e-08	-0.9718032	-0.21747236	-0.08909307
4.7200301791604043e-08	-0.9472103	-0.30655074	-0.09162213
4.730044338510411e-08	-0.91376746	-0.39477524	-0.09323735
4.7400108082758403e-08	-0.8720814	-0.47974005	-0.09367842
4.7500347717235316e-08	-0.82267267	-0.560345	-0.09288722
4.760001927704281e-08	-0.7674755	-0.6340917	-0.09102299
4.770020533622426e-08	-0.7074181	-0.7007972	-0.0883773
4.780041309054295e-08	-0.6441579	-0.75970757	-0.085343406
4.7900108848957274e-08	-0.57912844	-0.810703	-0.0823185
4.8000313864666397e-08	-0.51234305	-0.8547597	-0.07959461
4.8100485543050755e-08	-0.44444123	-0.89217055	-0.07743413
4.82001624767123e-08	-0.37570238	-0.92337054	-0.07600941
4.830040470455833e-08	-0.3051052	-0.94911444	-0.0754072
4.840004177887497e-08	-0.23303266	-0.9693335	-0.075678565
4.850019198338867e-08	-0.15817007	-0.98425466	-0.07681769
4.860044148008446e-08	-0.080333695	-0.9935001	-0.07876183
4.870009210715846e-08	0.00021983178	-0.99653757	-0.08135371
4.880022274126959e-08	0.08436271	-0.9926999	-0.08439196
4.890044214619917e-08	0.17134921	-0.9811392	-0.08754162
4.900011431179705e-08	0.2596158	-0.961269	-0.09038089
4.910029475931081e-08	0.34854013	-0.9324726	-0.09252055
4.920046144801231e-08	0.4356926	-0.89492625	-0.09360121
4.930014154108582e-08	0.5186108	-0.849551	-0.09345372
4.940038238046586e-08	0.5963246	-0.79705703	-0.092117906
4.9500034004966456e-08	0.66663545	-0.73952323	-0.089844525
4.960020803451941e-08	0.7296492	-0.67780477	-0.086966306
4.9700449032978344e-08	0.7849051	-0.61341417	-0.08388369
4.980014299834347e-08	0.8324313	-0.54765344	-0.080972716
4.990031342660012e-08	0.8732592	-0.4803377	-0.07849023
5.000051623215613e-08	0.9077426	-0.41187745	-0.076658405
5.010020536297858e-08	0.9362446	-0.34248438	-0.07561653
5.020039129159007e-08	0.95939654	-0.2710809	-0.07542728
5.0300012449281275e-08	0.9770794	-0.19794172	-0.076111645
5.040022594544199e-08	0.9893667	-0.12171229	-0.07764406
5.050044934145881e-08	0.9957504	-0.042400755	-0.07992484
5.060006550456156e-08	0.99563086	0.039659817	-0.0827551
5.0700229821625063e-08	0.98824024	0.12522867	-0.08589234
5.08004804021761e-08	0.9727545	0.21324015	-0.08895619
5.090012484456121e-08	0.9487463	0.30180392	-0.09150724
5.1000265798864025e-08	0.9157718	0.3901214	-0.09317931
5.110049815662857e-08	0.87425774	0.4757638	-0.09368561
5.120018859204827e-08	0.8254644	0.55621386	-0.09295876
5.130036671304781e-08	0.77026033	0.6306906	-0.09113367
5.1400013801397775e-08	0.71072143	0.6974271	-0.088532135
5.150027500214457e-08	0.6475666	0.75678486	-0.08550732
5.1600487406017936e-08	0.58228695	0.8084221	-0.08245885
5.170012916766313e-08	0.51593864	0.8525804	-0.07972767
5.1800344382351676e-08	0.44806632	0.89034545	-0.077531435
5.1900029404495245e-08	0.37938958	0.92185575	-0.07606505
5.200021831221353e-08	0.30891842	0.9478779	-0.07541733
5.2100384901927253e-08	0.23657203	0.9684774	-0.07564534
5.2200062138337286e-08	0.16219708	0.98360455	-0.076736495
5.230029059863331e-08	0.084540315	0.99316025	-0.078640446
5.2400422562211695e-08	0.0037633642	0.99654186	-0.0812158
5.250006928427262e-08	-0.079817384	0.9930905	-0.08422456
5.2600317247200464e-08	-0.16670196	0.9819552	-0.087378986
5.2700479398202404e-08	-0.25534576	0.96242505	-0.090257205
5.2800106660180745e-08	-0.34381407	0.93423617	-0.09243053