# t (s)	mx ()	my ()	mz ()
0	0.099875234	0.94881475	0.29962572
5.017952441882605e-11	0.15429232	0.96219075	0.22298582
1.0031405930912369e-10	0.19149402	0.9673859	0.1642898
1.503522468419319e-10	0.21600263	0.9689013	0.11899582
2.004647124301837e-10	0.2309092	0.9691571	0.08397891
2.500330084096301e-10	0.23841706	0.9693028	0.0572155
3.000977310628085e-10	0.24040754	0.9698275	0.036310844
3.502495231112459e-10	0.23806162	0.97088116	0.020120684
4.003312916654952e-10	0.23235834	0.97244376	0.0075967135
4.5039118776469526e-10	0.22403142	0.9744259	-0.002131186
5.000047334775095e-10	0.21372764	0.9766949	-0.00966224
5.500479885196279e-10	0.20167522	0.97918034	-0.015630014
6.001585249803129e-10	0.18824594	0.9817668	-0.020354573
6.502995058540926e-10	0.17367871	0.98436594	-0.024128973
7.003492071345447e-10	0.15818393	0.9868981	-0.027176326
7.504445512545549e-10	0.14184853	0.98930895	-0.02968336
8.000279039479679e-10	0.124957964	0.9915222	-0.03176363
8.500758056860527e-10	0.107247785	0.9935371	-0.03356241
9.002216784416414e-10	0.08888487	0.9952957	-0.035141475
9.50320675947789e-10	0.06995531	0.99675596	-0.0365571
1.0003627230692528e-09	0.050488185	0.9978843	-0.03785568
1.0505034674261493e-09	0.030438507	0.9986507	-0.039075673
1.1000306636095962e-09	0.0101108225	0.9990181	-0.040225826
1.1501159096206545e-09	-0.010965731	0.9989627	-0.04135129
1.2002665902160506e-09	-0.032584973	0.9984441	-0.042452373
1.2503220959561019e-09	-0.05466758	0.99743044	-0.04353288
1.3003985402105815e-09	-0.07725162	0.995886	-0.04459862
1.3500020805651373e-09	-0.10009233	0.9937998	-0.04563927
1.4000427066039098e-09	-0.123588085	0.99109995	-0.04667111
1.4501692350266368e-09	-0.14755529	0.98776275	-0.04768142
1.500293528126512e-09	-0.17192057	0.98376083	-0.04866116
1.5503343719694484e-09	-0.19660446	0.97907275	-0.049600057
1.60046063189879e-09	-0.22164412	0.97365654	-0.050491285
1.650012523134924e-09	-0.24665311	0.9675724	-0.051313233
1.7000850944316014e-09	-0.27212405	0.9606701	-0.052073102
1.750240453042748e-09	-0.29777145	0.9529859	-0.05275188
1.8003031100313277e-09	-0.3234335	0.9445423	-0.05333661
1.8503814542040884e-09	-0.34908915	0.9353264	-0.05381913
1.9005374802467063e-09	-0.37469053	0.92533576	-0.054191478
1.9500349774465323e-09	-0.39978415	0.91474897	-0.054443706
2.0001694697333555e-09	-0.42494673	0.90331614	-0.054578066
2.050289469307213e-09	-0.44976777	0.8912069	-0.054588296
2.1003454427960723e-09	-0.4741481	0.87847555	-0.05447478
2.150477464125391e-09	-0.4980854	0.86513364	-0.05423963
2.2000184602196282e-09	-0.5212058	0.85141814	-0.053892482
2.2501107063524713e-09	-0.5439869	0.8370678	-0.053432126
2.3002655581619662e-09	-0.5661474	0.82227075	-0.05286956
2.3503422853680463e-09	-0.5875857	0.80712664	-0.05221637
2.4004232479740313e-09	-0.6083077	0.7916688	-0.051482715
2.4500356352198783e-09	-0.62810636	0.7761022	-0.050688207
2.500098035884846e-09	-0.6473348	0.76019126	-0.049830146
2.550229358791321e-09	-0.6658292	0.74410355	-0.048926305
2.6003499916313625e-09	-0.6835599	0.72791	-0.047989894
2.650415938125935e-09	-0.7005203	0.7116662	-0.047033172
2.700023333744761e-09	-0.71659744	0.69553965	-0.046074636
2.7501111570173914e-09	-0.7321123	0.6792563	-0.045105882
2.800183451908658e-09	-0.74692214	0.66300374	-0.044145357
2.850329989658836e-09	-0.7610757	0.64677453	-0.043199293
2.900426402859585e-09	-0.77456325	0.6306262	-0.04227702
2.950498513754454e-09	-0.7874204	0.614563	-0.041384
3.000108383314515e-09	-0.7995709	0.5987332	-0.04053263
3.0501677179496296e-09	-0.81126654	0.5828511	-0.03971146
3.100287589567856e-09	-0.82243556	0.5670435	-0.03893091
3.150419812002066e-09	-0.83309376	0.5513249	-0.038194615
3.200478209084101e-09	-0.84325045	0.5357186	-0.037505932
3.2500877044988124e-09	-0.85286266	0.5203347	-0.036870915
3.300164997984351e-09	-0.8621319	0.5048811	-0.03627904
3.3502636344618108e-09	-0.8709928	0.48948708	-0.03573715
3.400404966403807e-09	-0.87947005	0.47413525	-0.035245623
3.4504921890320057e-09	-0.887568	0.45884266	-0.03480569
3.5000394530832732e-09	-0.8952335	0.44374356	-0.0344208
3.550179460845577e-09	-0.90265846	0.42847824	-0.03408223
3.6002330989549167e-09	-0.9097532	0.4132382	-0.033795197
3.650340933925586e-09	-0.91655254	0.39796424	-0.033558667
3.7004849440256388e-09	-0.92306626	0.3826447	-0.03337266
3.750545601320974e-09	-0.9292904	0.36729842	-0.033237346
3.800137968691887e-09	-0.93519163	0.35202616	-0.033152748
3.8502301406683856e-09	-0.9408932	0.33651114	-0.033117123
3.900289023596521e-09	-0.9463374	0.32089776	-0.03313142
3.950440142788997e-09	-0.9515432	0.30512685	-0.033195693
4.0005319341787326e-09	-0.95649815	0.28922552	-0.0333098
4.050060044250878e-09	-0.96115935	0.2733364	-0.033471674
4.100203850593441e-09	-0.96563786	0.25705987	-0.033685323
4.1502518797380976e-09	-0.96986544	0.24060254	-0.033948578
4.200350379406601e-09	-0.9738523	0.223895	-0.034262225
4.2504987450514195e-09	-0.9775928	0.20691486	-0.03462649
4.300551302903073e-09	-0.9810705	0.18968984	-0.03504028
4.3501301054298544e-09	-0.98425543	0.17233317	-0.035499554
4.4002321203673085e-09	-0.98720133	0.15447381	-0.036013447
4.450278257861855e-09	-0.98985815	0.13629237	-0.036576357
4.50041600075592e-09	-0.9922193	0.117714025	-0.037189413
4.550529630024373e-09	-0.9942625	0.09876082	-0.037850402
4.600030311550447e-09	-0.99595165	0.07964424	-0.038549405
4.650181637250487e-09	-0.99730885	0.059858453	-0.039302632
4.700241999768e-09	-0.9982852	0.03967354	-0.04009745
4.7503135070294125e-09	-0.99885863	0.019036109	-0.0409325
4.80046623236314e-09	-0.9990017	-0.0020943736	-0.041805454
4.850534731654052e-09	-0.9986849	-0.023655115	-0.042709
4.900080857506451e-09	-0.99788916	-0.045451883	-0.043629453
4.950209899806372e-09	-0.99656427	-0.067970075	-0.044581152
5.000246428049242e-09	-0.99468786	-0.09090608	-0.045544304
5.050363632646098e-09	-0.9922199	-0.114326224	-0.046513904
5.100499127579743e-09	-0.98912907	-0.13818312	-0.047479365
5.15053900632663e-09	-0.9853918	-0.16239509	-0.0484282
5.200141573379791e-09	-0.98101443	-0.1867572	-0.04934319
5.250221898409976e-09	-0.97588825	-0.21167822	-0.050229467
5.300274269172646e-09	-0.9700319	-0.2368621	-0.051065333
5.3504272225712456e-09	-0.9634101	-0.26231748	-0.051840413
5.400515694424129e-09	-0.95603025	-0.28789765	-0.052539848
5.450048754300639e-09	-0.9479725	-0.31328088	-0.05314676
5.5001850241430925e-09	-0.93904763	-0.33898732	-0.053664625
5.5502548309339785e-09	-0.9293703	-0.36459598	-0.054075696
5.6003432948346474e-09	-0.9189414	-0.39007026	-0.054373205
5.650494889375249e-09	-0.9077737	-0.4153514	-0.054551564
5.700551759750034e-09	-0.8959346	-0.44028026	-0.054606996
5.750134340056484e-09	-0.8835634	-0.4645977	-0.054540195
5.800238808104598e-09	-0.87045515	-0.48871994	-0.05435108
5.850283059209665e-09	-0.8568033	-0.5122943	-0.054043896
5.900420414758321e-09	-0.8426193	-0.5353329	-0.05362352
5.950536667660214e-09	-0.8279909	-0.55773056	-0.053098477
6.000052895568585e-09	-0.8131517	-0.579198	-0.052485995
6.050205872353413e-09	-0.7977883	-0.60023665	-0.051781237
6.10029610098538e-09	-0.78216535	-0.6205159	-0.05100403
6.150395919842714e-09	-0.76631486	-0.6400491	-0.050165374
6.200543188277922e-09	-0.75027597	-0.658841	-0.04927669
6.250058080945186e-09	-0.7343151	-0.6766485	-0.048362635
6.300201660673773e-09	-0.71806854	-0.6939303	-0.047411412
6.35031471560451e-09	-0.70178634	-0.71045655	-0.046445977
6.400374728525016e-09	-0.68550915	-0.72623706	-0.045476962
6.450511245725309e-09	-0.6692233	-0.7413319	-0.04451113
6.5000684672748554e-09	-0.6531646	-0.7555763	-0.04356917
6.550160965598164e-09	-0.6369905	-0.7693165	-0.042637177
6.600304557101423e-09	-0.62087286	-0.7824346	-0.041730862
6.650388348183229e-09	-0.60485774	-0.7949296	-0.040857665
6.70046507135912e-09	-0.5889349	-0.80684376	-0.040021162
6.75007605814534e-09	-0.57325184	-0.8181038	-0.039232202
6.800138221124368e-09	-0.55751926	-0.8289458	-0.038479198
6.850250670448384e-09	-0.5418618	-0.83930206	-0.037771218
6.9003969911696515e-09	-0.5262799	-0.8491942	-0.03711046
6.950461190020611e-09	-0.51080257	-0.85862523	-0.036499754
7.0000442236034745e-09	-0.4955429	-0.8675507	-0.035944086
7.0501471535357935e-09	-0.4801826	-0.87617284	-0.035432935
7.100212226957517e-09	-0.4648816	-0.88441086	-0.034973085
7.150350940791009e-09	-0.44959268	-0.89230233	-0.034563735
7.200464560859954e-09	-0.43433172	-0.89984953	-0.034205787
7.250519060054336e-09	-0.4190938	-0.9070643	-0.033899266
7.300139787829707e-09	-0.40397707	-0.9139128	-0.033645548
7.3502000898937055e-09	-0.3886988	-0.9205284	-0.033439986
7.400287483721969e-09	-0.37336713	-0.9268646	-0.03328477
7.450440970081938e-09	-0.35795173	-0.9329363	-0.033179723
7.500503676227861e-09	-0.34248227	-0.93873346	-0.033124972
7.550076950394792e-09	-0.32706442	-0.944222	-0.033119954
7.600188309050364e-09	-0.31135902	-0.94952095	-0.033164553
7.650245422825178e-09	-0.29552978	-0.9545687	-0.033258934
7.700376088062861e-09	-0.27951568	-0.95938075	-0.03340337
7.750496193279046e-09	-0.26332232	-0.96395	-0.033597767
7.80000232742147e-09	-0.24712715	-0.9682253	-0.033838935
7.850152105093076e-09	-0.23049715	-0.9723133	-0.034133144
7.900232791207597e-09	-0.21364307	-0.97614783	-0.034477144
7.950292259364085e-09	-0.19652757	-0.9797279	-0.034871183
8.000441720210108e-09	-0.17909011	-0.9830534	-0.03531622
8.050531935312903e-09	-0.16136038	-0.98610485	-0.035810858
8.10005781996174e-09	-0.14350188	-0.9888457	-0.03634889
8.150199285047312e-09	-0.12506764	-0.9913273	-0.036942728
8.200245980389203e-09	-0.10629304	-0.99349463	-0.03758396
8.250342916251773e-09	-0.087104715	-0.99533683	-0.038273286
8.300489635874385e-09	-0.06748357	-0.99683285	-0.03900931
8.350536808275625e-09	-0.04747227	-0.99795663	-0.039787732
8.400119513276761e-09	-0.027210023	-0.9986828	-0.040599577
8.450217751890948e-09	-0.0062841936	-0.99899864	-0.04145766
8.500259362615438e-09	0.015080795	-0.99886686	-0.04234864
8.550400299808437e-09	0.036956698	-0.9982561	-0.043270357
8.600507395769013e-09	0.059286512	-0.9971358	-0.044214528
8.65001288310213e-09	0.081803545	-0.9954964	-0.045163263
8.700162577339997e-09	0.10506453	-0.99326265	-0.046132583
8.750213602779271e-09	0.12871549	-0.9904257	-0.04709933
8.80030034193279e-09	0.15279546	-0.9869463	-0.048056148
8.850450325618911e-09	0.17728786	-0.9827898	-0.048992656
8.900511437950523e-09	0.20207962	-0.97794074	-0.049894433
8.950074260387908e-09	0.22691679	-0.97242653	-0.050742783
9.000189919262714e-09	0.2522734	-0.96610814	-0.051543318
9.050235708287298e-09	0.2777775	-0.9590379	-0.052272987
9.100360133630342e-09	0.30343777	-0.9511852	-0.05292203
9.150486472822275e-09	0.3291425	-0.9425578	-0.053478114
9.200544135829568e-09	0.3547787	-0.9331743	-0.05393078
9.250138257700501e-09	0.38006648	-0.92313385	-0.054269932
9.30023607876795e-09	0.4054187	-0.9122604	-0.054495692
9.350298265670258e-09	0.4304797	-0.90068895	-0.0545998
9.400456873192861e-09	0.45523682	-0.8884239	-0.054580368
9.450541579627545e-09	0.47953138	-0.87554896	-0.054437883
9.500095145345582e-09	0.50308174	-0.86223984	-0.054178704
9.550233421816542e-09	0.5263554	-0.8482482	-0.053801835
9.600287260482994e-09	0.5489789	-0.83380795	-0.053317685
9.650412328671224e-09	0.5709767	-0.81893194	-0.0527336
9.700540588011663e-09	0.59227943	-0.80369747	-0.052060395
9.750068833330665e-09	0.61261517	-0.78835	-0.051318705
9.800212121062111e-09	0.6324624	-0.7725678	-0.05050207
9.850314414501619e-09	0.6515368	-0.75660527	-0.04963213
9.900391358750266e-09	0.6698416	-0.74050677	-0.048720784
9.950000475757027e-09	0.6872287	-0.7244604	-0.047788274
1.0000073901836079e-08	0.70403343	-0.7082045	-0.046828173
1.0050176482274789e-08	0.72011244	-0.69191444	-0.045859
1.0100326713786921e-08	0.73548824	-0.67561436	-0.044890024
1.0150386458938403e-08	0.7501408	-0.6593747	-0.04393259
1.0200501786553544e-08	0.7641378	-0.6431686	-0.042991612
1.025006870527779e-08	0.777346	-0.6272067	-0.042084776
1.0300142967512699e-08	0.7900747	-0.6111606	-0.0411985
1.0350288390832975e-08	0.80223024	-0.59517944	-0.04034592
1.0400385590573408e-08	0.8138115	-0.57930624	-0.039533135
1.0450459686207956e-08	0.8248533	-0.5635339	-0.038762987
1.0500070288496913e-08	0.8352936	-0.5479984	-0.03804422
1.0550139108036334e-08	0.84535253	-0.5324074	-0.037365507
1.0600249537755895e-08	0.85496485	-0.5168853	-0.03673475
1.0650394576039886e-08	0.86415255	-0.5014264	-0.036153246
1.0700449832136735e-08	0.87291634	-0.4860592	-0.035623122
1.0750052318227107e-08	0.881221	-0.4708826	-0.035147868
1.0800142710457224e-08	0.8892434	-0.45559645	-0.03471877
1.0850202189491497e-08	0.8969142	-0.4403456	-0.03434103
1.0900355297848099e-08	0.90426886	-0.42507744	-0.034013756
1.095045011284044e-08	0.91130066	-0.40982237	-0.03373785
1.1000509068272061e-08	0.9180276	-0.39455715	-0.03351287
1.1050123133056957e-08	0.9244112	-0.37938982	-0.03333971
1.1100182851243004e-08	0.9305776	-0.3640304	-0.03321507
1.1150276373585355e-08	0.9364811	-0.34858605	-0.033140514
1.1200428257583586e-08	0.9421323	-0.33302993	-0.033115994
1.1250490536313177e-08	0.9475212	-0.31738853	-0.03314144
1.1300069281964803e-08	0.9526146	-0.30176717	-0.03321573
1.1350171889977484e-08	0.95751905	-0.28582817	-0.03334045
1.1400223977840028e-08	0.962177	-0.26973122	-0.033514895
1.1450355565149851e-08	0.96660054	-0.25341326	-0.03373964
1.1500477155792537e-08	0.9707799	-0.23688145	-0.03401447
1.1550520670689134e-08	0.9747068	-0.22013712	-0.03433898
1.160012887890434e-08	0.97835267	-0.20328192	-0.03471015
1.1650202673334214e-08	0.9817766	-0.18598786	-0.035134774
1.1700268489903918e-08	0.98493415	-0.16839273	-0.035609454
1.175041653810124e-08	0.98782	-0.15044244	-0.036134925
1.180050335043492e-08	0.9904133	-0.13216677	-0.036709316
1.1850036640217002e-08	0.99267924	-0.11373146	-0.03732545
1.1900176784728238e-08	0.994654	-0.094684325	-0.037996877
1.1950219488597484e-08	0.99628603	-0.075268485	-0.038713537
1.2000320233685358e-08	0.99755955	-0.055406976	-0.039475802
1.2050465474144096e-08	0.9984497	-0.035088707	-0.040281195
1.2100508102737118e-08	0.9989289	-0.014361431	-0.041124254
1.215009356988878e-08	0.99897385	0.0066299825	-0.04199465
1.2200190023086632e-08	0.9985553	0.028302204	-0.042904865
1.2250234140420628e-08	0.9976408	0.050419904	-0.043839585
1.2300376015448258e-08	0.99619484	0.0730472	-0.044795144
1.2350481219482103e-08	0.99418706	0.09611599	-0.04576147
1.24005241003559e-08	0.99158704	0.11959877	-0.046729483
1.2450140486090706e-08	0.98839015	0.14329755	-0.047682665
1.2500195389737095e-08	0.9845091	0.16759786	-0.048627228
1.255027587175945e-08	0.97993726	0.19226931	-0.049543858
1.2600427516009847e-08	0.9746419	0.21729219	-0.050421305
1.2650491451508597e-08	0.96861744	0.24253635	-0.051244497
1.270005728073935e-08	0.9619087	0.26773334	-0.051995445
1.2750170761132523e-08	0.95436156	0.2933509	-0.05267784
1.2800223059940267e-08	0.9460508	0.3190097	-0.053270888
1.2850352297514343e-08	0.93695563	0.34470516	-0.053765755
1.2900481794290769e-08	0.9270979	0.3703192	-0.054152466
1.2950525243840623e-08	0.9165142	0.39572734	-0.054423474
1.3000133060488082e-08	0.9053152	0.42067537	-0.054573663
1.3050215350376592e-08	0.8933276	0.44554225	-0.05460284
1.3100296695847474e-08	0.88069534	0.47001156	-0.054508556
1.3150442922154027e-08	0.86744654	0.49404335	-0.054292418
1.3200537119946661e-08	0.85366285	0.51751626	-0.053959124
1.3250100795893942e-08	0.83953875	0.54015887	-0.05352015
1.3300223018144974e-08	0.82482004	0.56241864	-0.05297389
1.335029073173856e-08	0.8097377	0.58397305	-0.052335132
1.3400431969970423e-08	0.79431045	0.60484433	-0.051613055
1.345054688478498e-08	0.77862483	0.62496644	-0.05082067
1.3500059641318268e-08	0.7629185	0.6441074	-0.049980182
1.3550213858581638e-08	0.74684656	0.66273975	-0.049082458
1.3600285342502726e-08	0.73068476	0.6805819	-0.04815157
1.3650386997059658e-08	0.71443844	0.69768167	-0.047196914
1.3700530803924352e-08	0.69814074	0.71405345	-0.046229012
1.3750036969356973e-08	0.6820449	0.72950464	-0.045270957
1.380018333530422e-08	0.6657625	0.74445415	-0.04430703
1.385029359299592e-08	0.64953583	0.7587108	-0.043358408
1.3900367374296977e-08	0.633383	0.77230144	-0.04243218
1.3950508219616026e-08	0.6172842	0.78528047	-0.041532658
1.4000057061361846e-08	0.6014591	0.79751444	-0.040676318
1.4050163576888457e-08	0.5855464	0.80931586	-0.039847635
1.4100302455928696e-08	0.56971705	0.82057875	-0.039059542
1.4150388064647175e-08	0.5539977	0.8313122	-0.038316257
1.420047546997703e-08	0.53836787	0.8415556	-0.037619166
1.4250072605150184e-08	0.5229744	0.85124093	-0.03697614
1.430012430505e-08	0.50751656	0.86057794	-0.036376145
1.4350272557994425e-08	0.492097	0.8695162	-0.03582517
1.4400378252911696e-08	0.4767477	0.87805235	-0.035325386
1.4450440496725923e-08	0.46145648	0.88620794	-0.034876995
1.450005512756231e-08	0.44633302	0.8939419	-0.034483023
1.4550117136986253e-08	0.43109012	0.9014109	-0.034136325
1.4600212206117287e-08	0.4158389	0.90856475	-0.03384041
1.465036842371123e-08	0.40055436	0.9154213	-0.03359507
1.4700416119642874e-08	0.3852714	0.92197096	-0.03340087
1.4750511890085798e-08	0.3699246	0.9282463	-0.0332569
1.480011042101322e-08	0.35466367	0.93419313	-0.033163875
1.4850157530789839e-08	0.33917913	0.9399335	-0.03311977
1.490029483596465e-08	0.32356122	0.9454292	-0.033125598
1.4950416736630572e-08	0.3078227	0.95067406	-0.033181384
1.5000461923301964e-08	0.29196295	0.95566595	-0.0332869
1.5050075297518668e-08	0.27607638	0.9603761	-0.033440653
1.510013591065945e-08	0.2598607	0.9648884	-0.03364546
1.5150222451837028e-08	0.24342832	0.96916085	-0.03390037
1.520037130946155e-08	0.2267452	0.97319365	-0.034205817
1.5250437523678816e-08	0.20983776	0.97697103	-0.03456094
1.5300509108642886e-08	0.19265503	0.9804944	-0.034966312
1.5350117302899478e-08	0.17533997	0.9837264	-0.0354174
1.5400159809284586e-08	0.15755793	0.98671645	-0.03592217
1.54502860509365e-08	0.13940719	0.9894274	-0.03647754
1.5500411763781234e-08	0.12089636	0.9918402	-0.037082143
1.5550452436539597e-08	0.102037385	0.9939357	-0.037734024
1.5600057647348926e-08	0.08294942	0.99568635	-0.03842668
1.56501313575902e-08	0.06326668	0.99710333	-0.039171178
1.5700189438701384e-08	0.043157928	0.99814594	-0.03995878
1.575034037819537e-08	0.02256489	0.9987909	-0.040788528
1.5800423167941012e-08	0.0015424242	0.99900895	-0.04165431
1.5850473825559204e-08	-0.019930791	0.998773	-0.042552385
1.5900091483653347e-08	-0.04167992	0.99806106	-0.043470014
1.595013278289113e-08	-0.06407945	0.9968298	-0.044416994
1.600023256690643e-08	-0.0869666	0.99504805	-0.04537962
1.6050377621181077e-08	-0.11032484	0.99268115	-0.04634951
1.6100423575671276e-08	-0.1340679	0.989704	-0.04731468
1.6150010019384778e-08	-0.15799281	0.9861166	-0.048258245
1.6200103300626058e-08	-0.1825341	0.98181784	-0.049187634
1.6250154407788385e-08	-0.20738801	0.9768178	-0.050080657
1.630029573688673e-08	-0.232573	0.9710778	-0.05092739
1.635039824984418e-08	-0.25796947	0.9645917	-0.051713157
1.6400448688367846e-08	-0.28350797	0.957349	-0.052425634
1.6450067145902484e-08	-0.308925	0.94940805	-0.053048927
1.650012079074772e-08	-0.33459195	0.940629	-0.053583134
1.655021607721438e-08	-0.36023012	0.93107665	-0.05401317
1.6600366479623725e-08	-0.38576606	0.9207608	-0.054330908
1.6650425569382112e-08	-0.41104445	0.9097351	-0.0545296
1.6700011013044047e-08	-0.43579736	0.8981255	-0.05460607
1.675011196410313e-08	-0.4604413	0.88573694	-0.054560304
1.6800171817405912e-08	-0.48462433	0.8727411	-0.054392077
1.6850320562212773e-08	-0.50834095	0.85915244	-0.05410415
1.6900429227095344e-08	-0.5314686	0.84505844	-0.053702664
1.695048585356533e-08	-0.55395025	0.8305197	-0.053195525
1.700009662366428e-08	-0.5755748	0.8157142	-0.052597284
1.7050167787956956e-08	-0.59670156	0.80042857	-0.05190734
1.7100269923739785e-08	-0.6171123	0.78484523	-0.051141657
1.71504213925072e-08	-0.63679427	0.76901275	-0.050311763
1.7200486429996303e-08	-0.65568495	0.7530259	-0.049432084
1.7250061862647532e-08	-0.6736425	0.7370635	-0.0485224
1.7300171122586083e-08	-0.69104064	0.72083914	-0.047575433
1.7350229690378945e-08	-0.70767534	0.70457965	-0.04661284
1.7400385303720965e-08	-0.72360945	0.68827105	-0.04564209
1.7450474766973398e-08	-0.7388094	0.67199564	-0.044675745
1.7500021740944888e-08	-0.75316536	0.65593183	-0.043731265
1.755015888294229e-08	-0.767029	0.639732	-0.042794503
1.760020508035375e-08	-0.78022826	0.62363213	-0.041884977
1.7650334656541504e-08	-0.79283696	0.6075872	-0.041005105
1.770047787007483e-08	-0.80486375	0.5916273	-0.04016093
1.7750524489533962e-08	-0.81631196	0.5757909	-0.039358117
1.780013092335954e-08	-0.82713926	0.560186	-0.03860464
1.7850219020898058e-08	-0.83757323	0.54452074	-0.037889015
1.7900298038561956e-08	-0.8475307	0.52894527	-0.037220843
1.795044735324273e-08	-0.8570522	0.5134285	-0.03660059
1.800052774863414e-08	-0.8661353	0.49800473	-0.036031008
1.8050073148504582e-08	-0.87472534	0.4828063	-0.03551717
1.810021115228224e-08	-0.8830384	0.46747565	-0.035047885
1.8150267699312657e-08	-0.8909767	0.4522068	-0.034630448
1.8200372944929197e-08	-0.8985797	0.43694583	-0.03426374
1.8250519185360572e-08	-0.905862	0.42168015	-0.033947896
1.830002463327524e-08	-0.9127455	0.40660152	-0.03368614
1.835016858000269e-08	-0.9194218	0.39130372	-0.033471517
1.8400277154822245e-08	-0.92580813	0.37597448	-0.033307612
1.8450333126477898e-08	-0.93191385	0.36060125	-0.033194155
1.850046864883239e-08	-0.937764	0.3451247	-0.033130705
1.855001655364453e-08	-0.94329244	0.32973328	-0.033117216
1.8600102670581413e-08	-0.9486311	0.31405792	-0.033153225
1.865025233791506e-08	-0.9537298	0.29822505	-0.033239234
1.870031247036584e-08	-0.9585763	0.28226256	-0.033374947
1.8750399782762007e-08	-0.96318376	0.26611263	-0.033560634
1.8800550172438097e-08	-0.96755487	0.24974194	-0.033796646
1.885004440029225e-08	-0.9716293	0.23336773	-0.03407879
1.89001791473813e-08	-0.9755108	0.21653953	-0.034414537
1.8950294539398858e-08	-0.9791384	0.19945237	-0.034800448
1.9000340401991686e-08	-0.9825021	0.1821022	-0.035235997
1.9050470022355684e-08	-0.985603	0.16441385	-0.035722446
1.910001695845844e-08	-0.9883932	0.14660582	-0.03625232
1.915009060965597e-08	-0.9909229	0.12825894	-0.036836963
1.9200242513122674e-08	-0.993149	0.10951066	-0.037471324
1.9250311100246134e-08	-0.995047	0.09040177	-0.0381523
1.930037657367007e-08	-0.99660146	0.07088442	-0.038879417
1.9350529946360833e-08	-0.9977926	0.050905325	-0.039652172
1.9400023816693593e-08	-0.9985857	0.030755188	-0.040455837
1.945014449389843e-08	-0.9989756	0.0098987995	-0.041308086
1.95002755134134e-08	-0.998922	-0.011424883	-0.04219523
1.9550312771291337e-08	-0.9983961	-0.033175696	-0.043110546
1.9600424143966335e-08	-0.99736536	-0.055427313	-0.04405135
1.9650563783787487e-08	-0.9957967	-0.078156814	-0.04501012
1.970004962556867e-08	-0.9936889	-0.10103693	-0.045965884
1.975019974625112e-08	-0.9909527	-0.124661624	-0.046935376
1.9800282989584297e-08	-0.9875847	-0.14867187	-0.047894716
1.9850336954155305e-08	-0.98355293	-0.17305481	-0.048833944
1.9900487505924027e-08	-0.97881716	-0.1978353	-0.049743883
1.9950001535714015e-08	-0.9734322	-0.22260158	-0.050599895
2.0000106226691763e-08	-0.96724415	-0.24791512	-0.05141102
2.005025207752332e-08	-0.96029043	-0.27344376	-0.052154936
2.0100300529667292e-08	-0.9525811	-0.2990505	-0.05281769
2.015040972064603e-08	-0.94408876	-0.32474452	-0.053390216
2.0200548185565025e-08	-0.93482053	-0.35043344	-0.05386175
2.0250045578295228e-08	-0.9249257	-0.3756966	-0.054219425
2.03001956292102e-08	-0.9141647	-0.40111408	-0.05446584
2.035029038568301e-08	-0.90270364	-0.4262436	-0.05459086
2.0400353043724966e-08	-0.8905736	-0.45101872	-0.054592527
2.0450494303086245e-08	-0.87778836	-0.47541875	-0.05447077
2.0500035359037202e-08	-0.8645771	-0.49905115	-0.054231584
2.0550125292608986e-08	-0.8506855	-0.5224017	-0.053874277
2.0600276255818857e-08	-0.8362942	-0.54517716	-0.053407002
2.0650344666458774e-08	-0.82150173	-0.56726485	-0.05283972
2.0700436953283417e-08	-0.80633545	-0.5886737	-0.0521814
2.0750035460765715e-08	-0.79101336	-0.6091622	-0.05145096
2.0800108774147826e-08	-0.77529144	-0.6291099	-0.05064585
2.0850224763458893e-08	-0.75935435	-0.6483196	-0.049784023
2.0900357298239202e-08	-0.7432596	-0.6667746	-0.048877954
2.0950434140845715e-08	-0.72707593	-0.6844504	-0.047940828
2.1000025341590485e-08	-0.71098405	-0.70121527	-0.04699233
2.105013694361607e-08	-0.69469327	-0.71742135	-0.046023734
2.1100214457986177e-08	-0.6784142	-0.732896	-0.04505532
2.1150348702991543e-08	-0.6621438	-0.7476877	-0.044094212
2.1200458704620416e-08	-0.64592963	-0.7617959	-0.04314986
2.1250533974727475e-08	-0.62979203	-0.7752444	-0.042229332
2.130013276214289e-08	-0.6138848	-0.78795135	-0.04134623
2.1350228506044752e-08	-0.5979045	-0.8001933	-0.04048825
2.1400307795618085e-08	-0.5820211	-0.81186455	-0.039668873
2.1450451989349344e-08	-0.56621104	-0.8230111	-0.038890265
2.150055160190334e-08	-0.55050766	-0.833636	-0.03815689
2.1550100873183938e-08	-0.5350645	-0.8436672	-0.03747746
2.16002361881419e-08	-0.5195215	-0.85336	-0.036838077
2.165031668070956e-08	-0.5040707	-0.8626076	-0.036248848
2.1700415183942286e-08	-0.48868018	-0.8714472	-0.03570966
2.175000021536706e-08	-0.47350106	-0.8798126	-0.035226017
2.180006919341136e-08	-0.45821562	-0.8878929	-0.034788404
2.1850211379101922e-08	-0.44293633	-0.8956342	-0.03440137
2.190030946515306e-08	-0.42768422	-0.90303594	-0.03406581
2.195036904426415e-08	-0.41244203	-0.91011524	-0.033781447
2.200051418466412e-08	-0.39715534	-0.91690415	-0.033547465
2.205004304369725e-08	-0.38202173	-0.9233247	-0.033366133
2.210014606788835e-08	-0.36665994	-0.929543	-0.03323282
2.2150293393807617e-08	-0.35121298	-0.9354979	-0.033149686
2.2200349174778557e-08	-0.3357039	-0.9411818	-0.033116736
2.2250447838932375e-08	-0.3200718	-0.9466173	-0.033133686
2.2300034278338887e-08	-0.30447188	-0.951753	-0.033199597
2.2350091082150424e-08	-0.288575	-0.9566947	-0.033315696
2.240023275464107e-08	-0.27248037	-0.9614023	-0.033481948
2.2450338723769164e-08	-0.25620535	-0.9658648	-0.033698097
2.2500389514424064e-08	-0.23973532	-0.97008	-0.033964004
2.2550003055009103e-08	-0.22317788	-0.97401655	-0.034277
2.260006408730627e-08	-0.20621605	-0.97774	-0.03464274
2.2650140702157288e-08	-0.18897066	-0.9812088	-0.035058808
2.270029285243665e-08	-0.17139843	-0.9844178	-0.03552577
2.275036015755537e-08	-0.15353385	-0.987347	-0.036041923
2.280042930790921e-08	-0.13532539	-0.9899899	-0.036607668
2.285004026364493e-08	-0.11692457	-0.9923118	-0.037216555
2.2900080100662374e-08	-0.09798289	-0.99433863	-0.037878532
2.295019916576759e-08	-0.078608066	-0.9960326	-0.038588412
2.300033106808228e-08	-0.058807217	-0.99736977	-0.039343655
2.3050369962802932e-08	-0.03860771	-0.99832535	-0.040140282
2.310048176444101e-08	-0.01792969	-0.99887735	-0.04097799
2.3150049403601893e-08	0.0029759277	-0.99899787	-0.04184233
2.3200103404556464e-08	0.024549704	-0.99866164	-0.042746793
2.32502543263622e-08	0.046634622	-0.9978323	-0.043679543
2.3300340356874002e-08	0.069157906	-0.99648017	-0.04463126
2.3350390023723665e-08	0.09212367	-0.99457324	-0.045595102
2.3400007005129684e-08	0.1153306	-0.99210155	-0.04655499
2.3450051193757792e-08	0.13916123	-0.98898983	-0.04751826
2.3500150164514402e-08	0.16341761	-0.98522055	-0.048467338
2.3550293580431643e-08	0.18806162	-0.98076236	-0.049390744
2.3600344997946955e-08	0.21298389	-0.9756014	-0.050274156
2.3650439617698235e-08	0.2382019	-0.9697011	-0.051107753
2.370002774592604e-08	0.2633794	-0.96311826	-0.051870883
2.3750077039956654e-08	0.28894442	-0.9557126	-0.05256643
2.380021834003466e-08	0.31464154	-0.94751966	-0.05317647
2.385033011524195e-08	0.34033394	-0.9385584	-0.053688716
2.3900380616757827e-08	0.36592713	-0.9288454	-0.05409388
2.3950512403688422e-08	0.39141354	-0.9183687	-0.054385543
2.4000057589584173e-08	0.4163766	-0.9073032	-0.054556154
2.4050147579398502e-08	0.44130784	-0.8954285	-0.054606587
2.4100300581651358e-08	0.46588522	-0.88288516	-0.054533254
2.4150369700852415e-08	0.48996478	-0.8697554	-0.054338
2.4200451407794602e-08	0.51352787	-0.8560654	-0.05402459
2.4250048240494125e-08	0.5362897	-0.84201163	-0.053603686
2.4300109058089775e-08	0.5586355	-0.82738173	-0.053075135
2.4350246943810527e-08	0.5803398	-0.8123392	-0.052450787
2.4400365260420724e-08	0.6013258	-0.79696995	-0.051742386
2.4450428098506796e-08	0.6215551	-0.7813422	-0.05096215
2.45000323068306e-08	0.64085996	-0.7656391	-0.050129246
2.4550107060734015e-08	0.6595932	-0.749617	-0.049240105
2.4600211525207715e-08	0.6775776	-0.733461	-0.048313756
2.465035930317636e-08	0.69482154	-0.7172095	-0.047361426
2.4700447191204297e-08	0.71130097	-0.7009338	-0.046396002
2.4750013367074924e-08	0.72689235	-0.6848171	-0.04543656
2.4800135672900106e-08	0.7419535	-0.6685368	-0.044471383
2.485020020359635e-08	0.75631225	-0.65231574	-0.04352058
2.4900338265356026e-08	0.77003086	-0.6361302	-0.042588975
2.4950454298438388e-08	0.7831091	-0.6200253	-0.041684702
2.5000504843946128e-08	0.79556495	-0.60402507	-0.040813856
2.5050122537743464e-08	0.8073435	-0.5882522	-0.039986797
2.5100194866426377e-08	0.818683	-0.5724276	-0.03919245
2.5150286850958523e-08	0.82950497	-0.5566901	-0.038441293
2.520043886429088e-08	0.83984375	-0.5410248	-0.037735198
2.5250519695974926e-08	0.84969884	-0.5254675	-0.037077814
2.5300071334847567e-08	0.8590132	-0.5101518	-0.03647561
2.535019871522284e-08	0.8680174	-0.4947276	-0.03591619
2.5400250596124778e-08	0.87661046	-0.47938567	-0.03540816
2.545037409256355e-08	0.8848389	-0.4640689	-0.034950405
2.550050853840447e-08	0.8927113	-0.44878262	-0.034543753
2.555000999550475e-08	0.90015066	-0.43370858	-0.034192495
2.5600161741809425e-08	0.9073666	-0.41844082	-0.033887453
2.5650249195094963e-08	0.914265	-0.4031809	-0.0336337
2.5700314460415194e-08	0.9208662	-0.38789925	-0.033430703
2.5750464619295376e-08	0.9271957	-0.37254548	-0.033277906
2.5800557319562653e-08	0.93324584	-0.357145	-0.03317559
2.5850101942381566e-08	0.9389709	-0.3418314	-0.03312369
2.590023890175411e-08	0.94450986	-0.32623303	-0.033120945
2.5950288728795413e-08	0.94978935	-0.3105401	-0.03316807
2.600039396923714e-08	0.95482904	-0.2946878	-0.03326512
2.605053654930071e-08	0.9596294	-0.27866092	-0.033412203
2.610003065841345e-08	0.9641302	-0.26266104	-0.033606462