# t (s)	mx ()	my ()	mz ()
0	0.099875234	0.94881475	0.29962572
1.0025372743381259e-10	0.2135723	0.9601862	0.17855424
2.0041063818465807e-10	0.27873382	0.95429784	0.10583438
3.0004372704213763e-10	0.31549054	0.94668233	0.062211134
4.002688229745363e-10	0.33588377	0.9410211	0.035770975
5.004986459941245e-10	0.34646603	0.9376482	0.019863084
6.001252720907855e-10	0.35120994	0.9360348	0.010333048
7.003065124933856e-10	0.35250974	0.9355919	0.004551809
8.00559690924221e-10	0.3517157	0.9359015	0.0010641472
9.001972144249548e-10	0.34967083	0.9366683	-0.0010317232
1.0003580326149658e-09	0.346846	0.93771684	-0.0023104965
1.100038447908818e-09	0.3435615	0.9389242	-0.003087465
1.200283890918591e-09	0.33995837	0.9402345	-0.0035698868
1.300434355437547e-09	0.33616292	0.94159853	-0.003872998
1.4000816329150033e-09	0.33225346	0.9429857	-0.0040692324
1.5003328313908317e-09	0.32822186	0.94439757	-0.0042043277
1.6005162794976891e-09	0.32411432	0.9458162	-0.0043033035
1.7001435059447131e-09	0.31996185	0.9472302	-0.004381857
1.8003687805421402e-09	0.31572092	0.9486535	-0.0044505354
1.900055342956036e-09	0.31144065	0.95006865	-0.0045143813
2.0002208225850534e-09	0.30707628	0.95148945	-0.004577644
2.1004044621801386e-09	0.30264488	0.95290965	-0.0046422863
2.2000950598461955e-09	0.29816586	0.954322	-0.004709397
2.3003031344342908e-09	0.29358983	0.9557409	-0.004780598
2.4004461685049534e-09	0.2889381	0.95715874	-0.0048561795
2.500110228118368e-09	0.28422564	0.95857	-0.0049363016
2.600358431971374e-09	0.27939647	0.9599899	-0.005022246
2.7000110986593905e-09	0.2745017	0.96140224	-0.0051133786
2.800147258118065e-09	0.26948243	0.96282244	-0.0052110343
2.9003947958011076e-09	0.26434985	0.9642455	-0.005315277
3.0000644183728637e-09	0.25913316	0.96566164	-0.005425713
3.1002149436624903e-09	0.2537698	0.967086	-0.005543905
3.2004246534464727e-09	0.24827352	0.9685127	-0.0056698406
3.3001096421674036e-09	0.24266922	0.96993315	-0.005803182
3.400286212850299e-09	0.23689112	0.97136146	-0.0059457747
3.500452889859622e-09	0.23095779	0.9727901	-0.0060974974
3.600135847658386e-09	0.22488865	0.9742119	-0.00625812
3.700354695556347e-09	0.21861097	0.9756405	-0.006429912
3.800494512750837e-09	0.21215098	0.9770662	-0.0066125453
3.9001496362074365e-09	0.20552456	0.97848207	-0.006805888
4.000402099950956e-09	0.19864678	0.9799019	-0.0070128217
4.100046604743612e-09	0.19158694	0.981307	-0.0072316737
4.2001931092841006e-09	0.18425243	0.98271066	-0.007465729
4.300439417023987e-09	0.17665507	0.98410475	-0.007715117
4.400102520763486e-09	0.16883223	0.9854767	-0.007979026
4.50024322646469e-09	0.16068363	0.98683774	-0.0082613025
4.600446893498684e-09	0.15222205	0.9881775	-0.008562058
4.7001323049461115e-09	0.14347892	0.98948395	-0.008880611
4.800308584525676e-09	0.13434488	0.990764	-0.009221425
4.900463333740406e-09	0.12484177	0.9920046	-0.00958424
5.000137606612617e-09	0.11499238	0.9931925	-0.009968584
5.100364517540288e-09	0.10466914	0.99433076	-0.010379867
5.200498998810317e-09	0.093909144	0.9954015	-0.010817051
5.3001498189778295e-09	0.08273069	0.9963891	-0.011279622
5.400402060080068e-09	0.0709822	0.9972905	-0.011774069
5.500040430426318e-09	0.058776308	0.9980791	-0.012295717
5.600173875016963e-09	0.045947026	0.9987459	-0.012851531
5.700413283883268e-09	0.03250727	0.9992666	-0.01344067
5.800078245647161e-09	0.018520448	0.99961555	-0.014059682
5.900213811170444e-09	0.003808876	0.9997705	-0.014715428
6.000415690677575e-09	-0.011604753	0.99969995	-0.015405489
6.100095691218866e-09	-0.027654935	0.99937284	-0.016124941
6.200267940155919e-09	-0.044532098	0.9987496	-0.016879689
6.300421909244821e-09	-0.06217953	0.9977913	-0.017663797
6.400098537383379e-09	-0.08052959	0.9964616	-0.018470056
6.500318454539058e-09	-0.09978373	0.9946995	-0.019302035
6.600451997215162e-09	-0.11983118	0.9924639	-0.020148486
6.700106135041062e-09	-0.14058132	0.98971605	-0.020998243
6.8003571878087625e-09	-0.16224279	0.9863733	-0.021851031
6.900001744744082e-09	-0.18452528	0.98242414	-0.022685524
7.000142752470457e-09	-0.2076287	0.9777767	-0.023498196
7.1003816318085314e-09	-0.23140538	0.9723978	-0.02427134
7.200056124591164e-09	-0.2556151	0.9662901	-0.024984982
7.300208889119256e-09	-0.28041452	0.95936126	-0.025630962
7.400405298905494e-09	-0.3055874	0.9516176	-0.026190352
7.500087608974752e-09	-0.33086562	0.94310397	-0.026646178
7.600290143350744e-09	-0.35637423	0.93374366	-0.026990408
7.700446590287112e-09	-0.3818249	0.92361164	-0.027210131
7.800121472837722e-09	-0.40696082	0.91280234	-0.027298555
7.900362405420805e-09	-0.4319006	0.9012607	-0.02725337
8.00001227854843e-09	-0.45621902	0.8891934	-0.027076095
8.100174418622333e-09	-0.48005897	0.8765522	-0.026769767
8.200434992938229e-09	-0.50320405	0.86347735	-0.026342994
8.300089002550822e-09	-0.5254033	0.85016024	-0.02581114
8.40025626609452e-09	-0.54683244	0.83654916	-0.025182154
8.50049528934669e-09	-0.56733406	0.8227979	-0.024473283
8.60017990086524e-09	-0.58675116	0.8090826	-0.023705358
8.700342552685775e-09	-0.6052686	0.79534376	-0.0228863
8.80001349772505e-09	-0.62270546	0.78178704	-0.022039022
8.900261514870665e-09	-0.6392595	0.7683311	-0.021168279
9.000458255601524e-09	-0.6548427	0.75511515	-0.020291787
9.100104574260107e-09	-0.66941774	0.74224603	-0.019424561
9.200341550827728e-09	-0.6831902	0.7296103	-0.01856557
9.300040920301643e-09	-0.6960472	0.71737564	-0.017731627
9.400235840157983e-09	-0.7081684	0.7054324	-0.016919648
9.500414769492688e-09	-0.7195339	0.693855	-0.016138123
9.600100869873815e-09	-0.7301427	0.68270063	-0.015393388
9.700339588609339e-09	-0.740152	0.6718532	-0.014679484
9.8005109259893e-09	-0.7495407	0.66137874	-0.01400198
9.900174269051501e-09	-0.7583161	0.65131396	-0.013363764
1.0000442263801986e-08	-0.7666165	0.64153785	-0.0127573935
1.010010371286151e-08	-0.7743805	0.632158	-0.012189401
1.0200284094903783e-08	-0.7817327	0.62305623	-0.011652234
1.030054707173925e-08	-0.7886709	0.6142623	-0.01114721
1.0400220399252695e-08	-0.79518324	0.6058195	-0.010675989
1.0500388580281804e-08	-0.80137026	0.5976222	-0.010231851
1.0600058870090767e-08	-0.8071973	0.5897382	-0.00981762
1.070031077953535e-08	-0.81275177	0.58206904	-0.009427248
1.0800495039036448e-08	-0.8180183	0.57465327	-0.009061896
1.090014484888798e-08	-0.8229958	0.5675104	-0.008721532
1.1000372101613262e-08	-0.8277589	0.5605486	-0.008400907
1.1100069973884179e-08	-0.83227223	0.5538331	-0.008102204
1.1200269152074815e-08	-0.836599	0.5472829	-0.007821006
1.1300447418568551e-08	-0.8407301	0.5409225	-0.007557669
1.1400121254074383e-08	-0.8446606	0.53477114	-0.007312177
1.1500377148159264e-08	-0.8484459	0.5287517	-0.007080777
1.1600044320465061e-08	-0.8520533	0.5229251	-0.0068651596
1.170022447450572e-08	-0.8555335	0.51721776	-0.00666199
1.1800481056158858e-08	-0.85888004	0.5116474	-0.006471394
1.19001473285563e-08	-0.8620806	0.5062418	-0.0062937215
1.2000316981166105e-08	-0.86517894	0.5009338	-0.0061262744
1.210054261050851e-08	-0.86816806	0.49574098	-0.0059691863
1.2200228509287996e-08	-0.87103784	0.49068618	-0.005822678
1.2300406386009697e-08	-0.8738251	0.48571053	-0.0056846337
1.2400043000764276e-08	-0.876507	0.4808591	-0.0055559305
1.250025784943828e-08	-0.8791193	0.47607127	-0.0054346123
1.2600498518571467e-08	-0.88165224	0.4713687	-0.005320966
1.27001404055379e-08	-0.88409555	0.46677455	-0.0052151927
1.280030981242993e-08	-0.88648164	0.46223173	-0.005115702
1.2900568968626175e-08	-0.8888035	0.45775574	-0.0050226273
1.3000236855693584e-08	-0.89105	0.4533717	-0.0049362225
1.3100393934764015e-08	-0.8932492	0.4490276	-0.0048552193
1.3200060504346654e-08	-0.89538324	0.44476146	-0.0047801323
1.3300312505291597e-08	-0.8974781	0.44052324	-0.004709906
1.3400478768427813e-08	-0.8995226	0.43633777	-0.004644799
1.3500130663389082e-08	-0.901511	0.43221846	-0.004584839
1.3600377155022271e-08	-0.9034685	0.42811593	-0.004529154
1.3700043371702321e-08	-0.90537435	0.42407456	-0.004478217
1.3800200858873573e-08	-0.9072517	0.42004746	-0.004431324
1.3900411490071016e-08	-0.90909415	0.416049	-0.00438855
1.4000102482100266e-08	-0.91089356	0.4120985	-0.0043499647
1.4100291447156907e-08	-0.9126703	0.4081525	-0.004315066
1.4200468111259884e-08	-0.9144171	0.4042279	-0.0042839483
1.4300150526247029e-08	-0.9161274	0.4003404	-0.004256634
1.4400374766469169e-08	-0.91782093	0.39644656	-0.004232754
1.4500016669685736e-08	-0.91948	0.39258698	-0.0042124996
1.4600205279067506e-08	-0.9211254	0.3887149	-0.004195576
1.4700456083427043e-08	-0.92275	0.3848462	-0.0041820467
1.4800112154251916e-08	-0.92434514	0.38100317	-0.0041719275
1.4900256170670784e-08	-0.92592907	0.37714112	-0.004165074
1.500049230018872e-08	-0.9274971	0.37327242	-0.0041615185
1.5100166676108858e-08	-0.92903996	0.36941928	-0.004161245
1.520032694806147e-08	-0.9305754	0.36553836	-0.004164242
1.530053472683579e-08	-0.93209755	0.36164346	-0.004170526
1.540022243552348e-08	-0.9335989	0.3577538	-0.004180056
1.5500404674701007e-08	-0.9350958	0.35382658	-0.004192943
1.5600034698204287e-08	-0.9365738	0.34989983	-0.004209096
1.570026405027759e-08	-0.9380506	0.34592494	-0.0042287433
1.5800485449510014e-08	-0.93951833	0.34192258	-0.004251849
1.5900114230593675e-08	-0.94096935	0.33791298	-0.004278305
1.6000303951529187e-08	-0.9424213	0.3338463	-0.004308496
1.610055185196649e-08	-0.94386756	0.32973915	-0.0043423884
1.620019534900358e-08	-0.9452996	0.32561535	-0.00437982
1.630035599289958e-08	-0.9467341	0.32142472	-0.004421316
1.6400039851549023e-08	-0.94815767	0.3172051	-0.004466594
1.650026929105012e-08	-0.94958544	0.31290907	-0.0045162523
1.6600414677010836e-08	-0.95100915	0.30855903	-0.0045701517
1.6700075197300673e-08	-0.9524239	0.30416864	-0.004628203
1.680033478583667e-08	-0.9538454	0.29968542	-0.004691225
1.6900493240406348e-08	-0.9552644	0.2951354	-0.004759014
1.7000138515260658e-08	-0.9566754	0.290533	-0.0048314407
1.7100389667673283e-08	-0.95809495	0.28582126	-0.0049095773
1.7200054034969778e-08	-0.95950663	0.2810507	-0.004992721
1.730019807492862e-08	-0.96092546	0.2761647	-0.0050820448
1.7400418727990488e-08	-0.96234643	0.27117604	-0.0051775286
1.750009966450837e-08	-0.96376085	0.26610965	-0.005278853
1.7600265259545596e-08	-0.96518344	0.26090676	-0.0053874105
1.7700458700431542e-08	-0.96660805	0.2555831	-0.0055031306
1.780014584833896e-08	-0.96802664	0.25016037	-0.0056257457
1.790034774979147e-08	-0.969454	0.24457493	-0.0057569565
1.800049433240072e-08	-0.9708816	0.23884907	-0.0058965413
1.8100163874193756e-08	-0.9723029	0.23299904	-0.0060443524
1.820040754411408e-08	-0.97373265	0.22695331	-0.0062025143
1.830004106319721e-08	-0.9751533	0.22077318	-0.006369747
1.8400194326023264e-08	-0.97657984	0.21437788	-0.00654857
1.850044867564964e-08	-0.9780053	0.2077808	-0.006739028
1.86001004171131e-08	-0.9794183	0.20101738	-0.006940434
1.870024182651259e-08	-0.9808326	0.19400063	-0.007155782
1.8800471144947588e-08	-0.9822405	0.18674268	-0.0073851645
1.8900148513712127e-08	-0.98363054	0.17927657	-0.007627939
1.900030108372725e-08	-0.98501444	0.17150965	-0.007887566
1.910049228432584e-08	-0.9863825	0.16345656	-0.008164088
1.9200176423947984e-08	-0.9877232	0.15514502	-0.00845698
1.9300365569566104e-08	-0.98904574	0.1464714	-0.008770384
1.9400516649884094e-08	-0.9903372	0.13745971	-0.009103988
1.9500187092766786e-08	-0.99158573	0.12813064	-0.00945745
1.9600418782566525e-08	-0.9927972	0.11836304	-0.00983584
1.9700040260310556e-08	-0.9939486	0.1082469	-0.010236106
1.9800198940265105e-08	-0.9950436	0.09764026	-0.01066425
1.990045169701517e-08	-0.99606526	0.086558506	-0.011120072
2.0000095322408398e-08	-0.9969939	0.07505454	-0.011601554
2.0100228481758202e-08	-0.997825	0.06297265	-0.0121153295
2.020046516796956e-08	-0.99853706	0.050323926	-0.012660945
2.030013351368895e-08	-0.99910676	0.03716556	-0.0132356165
2.0400271332671748e-08	-0.9995178	0.023329344	-0.013846156
2.050046780101608e-08	-0.99974215	0.008834969	-0.014490882
2.0600148370297738e-08	-0.99975145	-0.006261484	-0.01516599
2.0700324666614874e-08	-0.9995144	-0.022143476	-0.015877903
2.0800474678228707e-08	-0.99899495	-0.03876167	-0.01662201
2.0900149311210714e-08	-0.9981592	-0.056061137	-0.017392766
2.1000374886947942e-08	-0.9969556	-0.07424177	-0.018195119
2.1100507004589582e-08	-0.9953438	-0.09320718	-0.019019827
2.1200156498696032e-08	-0.99328506	-0.11288434	-0.019857889
2.1300409082833513e-08	-0.9907053	-0.1334875	-0.020711249
2.1400053667805285e-08	-0.9875838	-0.15475515	-0.021560784
2.1500191346348098e-08	-0.9838351	-0.17689529	-0.022405285
2.1600425579843115e-08	-0.9794177	-0.19978678	-0.023229036
2.1700098644093763e-08	-0.9743187	-0.22321832	-0.024013089
2.180024973456653e-08	-0.9684448	-0.24736035	-0.02475075
2.190044332501132e-08	-0.96178305	-0.27202195	-0.025422763
2.2000135013299842e-08	-0.9543532	-0.2969595	-0.026010329
2.2100334419491654e-08	-0.94607145	-0.32230386	-0.026504422
2.2200486621696018e-08	-0.93698394	-0.34778255	-0.026888156
2.2300154148117e-08	-0.9271593	-0.37314126	-0.027149687
2.2400399655745356e-08	-0.91653	-0.3985034	-0.027283598
2.250004754336894e-08	-0.9052755	-0.423426	-0.027284002
2.2600198188885178e-08	-0.89334184	-0.44804364	-0.02715066
2.2700449603420216e-08	-0.88085234	-0.47212178	-0.026886469
2.2800124578293774e-08	-0.86798495	-0.495385	-0.026501436
2.29002827320062e-08	-0.8546995	-0.5179812	-0.026002172
2.300047861818649e-08	-0.8411501	-0.53972185	-0.025403157
2.310017073677176e-08	-0.8275078	-0.5604342	-0.024723118
2.3200388469503402e-08	-0.8137234	-0.58028984	-0.023970772
2.330003630343933e-08	-0.80003244	-0.5990487	-0.023170197
2.3400265171537638e-08	-0.78635347	-0.6169203	-0.022327537
2.350049681259324e-08	-0.7728333	-0.6338006	-0.021461707
2.3600154684586837e-08	-0.7596049	-0.64962083	-0.020590723
2.3700362912763822e-08	-0.7465655	-0.66458905	-0.019716
2.3800061230176996e-08	-0.73389035	-0.6785829	-0.018856214
2.3900293750034926e-08	-0.7214745	-0.6917906	-0.01801013
2.4000470994499832e-08	-0.70941365	-0.70417356	-0.017188985
2.4100134918014305e-08	-0.69777274	-0.7157291	-0.016400889
2.4200394741678392e-08	-0.68642944	-0.72663265	-0.015640393
2.4300060505914732e-08	-0.67552024	-0.73680145	-0.014918655
2.4400229919095884e-08	-0.66492224	-0.7463943	-0.014228875
2.4500482738336904e-08	-0.6546775	-0.7554098	-0.01357469
2.4600171937478815e-08	-0.6448414	-0.7638358	-0.012959873
2.470033665731456e-08	-0.6353008	-0.7718006	-0.012377304
2.4800544158191054e-08	-0.62608814	-0.7793032	-0.011828764
2.490023300344437e-08	-0.6172401	-0.7863394	-0.011315838
2.5000470250302683e-08	-0.6086489	-0.7930168	-0.010831609
2.5100116588160247e-08	-0.60039896	-0.7992892	-0.010380046
2.5200316236492498e-08	-0.5923818	-0.8052567	-0.009954357
2.5300008194729067e-08	-0.584669	-0.810881	-0.009557488
2.5400241413810862e-08	-0.57716644	-0.8162449	-0.009183696
2.550040810742455e-08	-0.56990856	-0.82133496	-0.008833885
2.5600081686286433e-08	-0.5629117	-0.82615185	-0.008507879
2.5700343802989135e-08	-0.55608815	-0.83076555	-0.00820075
2.5800496007508727e-08	-0.5494754	-0.835159	-0.007913443
2.5900158395291613e-08	-0.5430857	-0.8393329	-0.0076456144
2.6000420498785776e-08	-0.5368388	-0.8433465	-0.007393174
2.6100093157471755e-08	-0.5307989	-0.8471652	-0.0071580186
2.620025688005133e-08	-0.5248906	-0.8508426	-0.0069365213
2.6300506733865798e-08	-0.51913005	-0.8543733	-0.0067287413
2.6400190999766827e-08	-0.51354486	-0.85774577	-0.006535052
2.6500367669188183e-08	-0.5080674	-0.8610048	-0.0063525364
2.6600009156485224e-08	-0.5027461	-0.8641261	-0.006182303
2.6700251147278222e-08	-0.49751282	-0.8671528	-0.0060216994
2.6800475048323548e-08	-0.49239388	-0.8700727	-0.0058711544
2.6900107526864522e-08	-0.48741084	-0.87287694	-0.0057308218
2.7000288076782474e-08	-0.4825003	-0.8756037	-0.005598539
2.7100546850265602e-08	-0.47768012	-0.87824523	-0.0054744906
2.7200206911414037e-08	-0.4729763	-0.88078994	-0.0053589633
2.7300351786203596e-08	-0.46833214	-0.8832706	-0.0052502477
2.740002044223537e-08	-0.463787	-0.88566816	-0.0051489933
2.7500281935101618e-08	-0.45928717	-0.8880123	-0.005053741
2.7600442565284577e-08	-0.45485955	-0.8902906	-0.0049648588
2.7700076374381126e-08	-0.4505178	-0.89249784	-0.0048823454
2.7800320300687048e-08	-0.44620806	-0.8946625	-0.004804971
2.79005289347722e-08	-0.4419543	-0.8967735	-0.004733017
2.8000159125102614e-08	-0.43777505	-0.89882314	-0.00466658
2.8100354488351354e-08	-0.4336184	-0.9008379	-0.004604677
2.8200040925710533e-08	-0.4295252	-0.90279865	-0.00454776
2.8300252645423935e-08	-0.42544928	-0.9047286	-0.0044950596
2.840041848703546e-08	-0.42141065	-0.9066187	-0.004446731
2.850010330148524e-08	-0.41742316	-0.9084633	-0.0044027944
2.860033834370216e-08	-0.41344205	-0.91028386	-0.0043626633
2.8700489137518095e-08	-0.40948963	-0.91207045	-0.00432649
2.880014876603624e-08	-0.40557846	-0.9138182	-0.0042942744
2.8900403889245003e-08	-0.40166283	-0.91554785	-0.0042655673
2.9000048156448614e-08	-0.39778686	-0.91724026	-0.0042406274
2.9100199275185165e-08	-0.3939038	-0.9189161	-0.004219085
2.9200433453388552e-08	-0.39002728	-0.9205698	-0.0042010006
2.930012021009462e-08	-0.3861787	-0.9221926	-0.004186409
2.9400279929851096e-08	-0.38231555	-0.9238024	-0.0041751135
2.9500467448330912e-08	-0.3784522	-0.92539346	-0.004167144
2.9600163405791376e-08	-0.37460566	-0.92695874	-0.004162493
2.9700362934026124e-08	-0.37073454	-0.92851543	-0.0041611036
2.9800523741366265e-08	-0.36685684	-0.9300559	-0.004162997
2.9900193908722425e-08	-0.36298713	-0.93157446	-0.0041681393
3.000043745324134e-08	-0.3590811	-0.93308866	-0.004176596
3.0100082270331417e-08	-0.35518137	-0.9345816	-0.0041883006
3.0200230733778905e-08	-0.35124168	-0.9360708	-0.004203397
3.030048842266582e-08	-0.34727424	-0.9375515	-0.004221899
3.0400149852108394e-08	-0.34330386	-0.9390141	-0.0042437026
3.0500294412182024e-08	-0.33928427	-0.9404753	-0.0042691017
3.060051415790113e-08	-0.3352283	-0.94193	-0.0042980826
3.070019864422176e-08	-0.33115733	-0.94337046	-0.0043305317
3.08003773245952e-08	-0.3270258	-0.944812	-0.004366874
3.090000682524112e-08	-0.32287312	-0.9462406	-0.0044068308
3.100024174103998e-08	-0.31864724	-0.94767344	-0.004450983
3.1100465784264596e-08	-0.31436977	-0.9491024	-0.004499224
3.120008700555532e-08	-0.31006223	-0.95051974	-0.0045513804
3.130026067208064e-08	-0.30567062	-0.95194244	-0.0046082065
3.140051215443252e-08	-0.30121052	-0.9533644	-0.004669651
3.150015837437787e-08	-0.2967083	-0.9547766	-0.0047354386
3.160030426246974e-08	-0.2921091	-0.956195	-0.004806499
3.170055297968093e-08	-0.28742546	-0.9576146	-0.0048828297
3.1800223943588716e-08	-0.2826842	-0.95902616	-0.004964114
3.190038062931818e-08	-0.27782932	-0.9604451	-0.0050514666
3.2000013600711746e-08	-0.27290383	-0.96185744	-0.005144297
3.210024739707258e-08	-0.2678457	-0.9632794	-0.0052439747
3.2200458512307236e-08	-0.26267886	-0.9647023	-0.0053502633
3.230007824526883e-08	-0.25742668	-0.9661182	-0.005462871
3.2400263614299706e-08	-0.25202066	-0.9675436	-0.0055834954
3.250051318489998e-08	-0.24647884	-0.96897125	-0.005712025
3.260015265284896e-08	-0.24083129	-0.9703914	-0.005847997
3.2700300385125894e-08	-0.2350059	-0.9718195	-0.005993417
3.280054945145359e-08	-0.22901554	-0.97324944	-0.006148313
3.290021144979016e-08	-0.22289245	-0.97467077	-0.0063121356
3.300035595023864e-08	-0.2165606	-0.9760979	-0.0064872457
3.310000137788268e-08	-0.21007077	-0.9775158	-0.006672592
3.320025240128185e-08	-0.20333858	-0.9789389	-0.0068709776
3.330042296154412e-08	-0.19639553	-0.98035574	-0.0070819147
3.3400046901502714e-08	-0.18926229	-0.981758	-0.0073051327
3.350027343820257e-08	-0.18184164	-0.98315966	-0.007544116
3.3600492095676945e-08	-0.17416093	-0.98454916	-0.0077984943
3.370010945593158e-08	-0.1662514	-0.98591536	-0.008067636
3.3800285401519206e-08	-0.15800329	-0.9872702	-0.0083557535
3.390053420382469e-08	-0.1494348	-0.98860264	-0.008662766
3.4000174127167296e-08	-0.14058664	-0.98989856	-0.008987658
3.410031045137053e-08	-0.13133979	-0.9911664	-0.009335274
3.420055388599787e-08	-0.1217041	-0.99239385	-0.009705787
3.430022185056163e-08	-0.111723855	-0.9935646	-0.010097893
3.4400364537386104e-08	-0.10126902	-0.99468195	-0.010517111
3.450056323582692e-08	-0.090353	-0.99572945	-0.010963319
3.4600244307774276e-08	-0.07901345	-0.9966895	-0.011435198
3.470042004077384e-08	-0.06710601	-0.9975573	-0.0119389035
3.480003448435091e-08	-0.05472647	-0.9983075	-0.0124704
3.4900247953142125e-08	-0.041699	-0.99893016	-0.013037058
3.500047135776871e-08	-0.028062884	-0.9993988	-0.013636798
3.510008771478948e-08	-0.013875512	-0.999688	-0.014266302
3.5200250431767e-08	0.0010586557	-0.9997741	-0.014933121
3.5300502526363465e-08	0.0167089	-0.99962395	-0.015634304
3.540013887805109e-08	0.03298866	-0.99920684	-0.0163638
3.550027237430379e-08	0.050104905	-0.998481	-0.017128017
3.5600511878966085e-08	0.06802021	-0.99740505	-0.0179216
3.5700178004303006e-08	0.08662484	-0.9959445	-0.018735178
3.580031451557195e-08	0.106122755	-0.99403685	-0.019572088
3.590051643609882e-08	0.12644331	-0.9916363	-0.020422421
3.60001977263362e-08	0.14745352	-0.9887082	-0.021272862
3.610037374037295e-08	0.16934605	-0.98517096	-0.022122068
3.620053102403567e-08	0.19197907	-0.9809867	-0.022953901
3.630020725766454e-08	0.21519212	-0.9761316	-0.023751453
3.640043771118954e-08	0.2391597	-0.97051144	-0.024508372
3.6500059250006855e-08	0.2635193	-0.96415615	-0.025200605
3.660022805243836e-08	0.28845188	-0.95696723	-0.025820512
3.670048598881688e-08	0.31373048	-0.94895667	-0.026349181
3.68001381493316e-08	0.33904794	-0.9401867	-0.026769653
3.690028272462005e-08	0.36454302	-0.9305792	-0.027074773
3.700050364920406e-08	0.38996392	-0.92020017	-0.027253086
3.7100185014077917e-08	0.4150086	-0.90916824	-0.027298748
3.720036666146906e-08	0.43979487	-0.8974329	-0.027210504
3.730000412457478e-08	0.46393052	-0.885194	-0.02699157
3.740023510907455e-08	0.487568	-0.87239856	-0.026645433
3.7500466380454266e-08	0.510455	-0.8592129	-0.026182577
3.760011075729002e-08	0.5323763	-0.8458145	-0.025618995
3.7700320549542664e-08	0.5535171	-0.8321456	-0.02496254
3.7800018167584635e-08	0.57360107	-0.81844634	-0.024235666
3.7900228355597105e-08	0.5928048	-0.80466366	-0.023446854
3.80003846330978e-08	0.6110005	-0.7909552	-0.022615826
3.810005471108374e-08	0.6281208	-0.7774494	-0.021761175
3.82003158765606e-08	0.644365	-0.7640613	-0.020887066
3.830048144587482e-08	0.65964115	-0.75093377	-0.020011207
3.840012760303285e-08	0.67392766	-0.73816043	-0.019147374
3.8500352195520344e-08	0.6874217	-0.72563154	-0.01829439
3.8600047631241953e-08	0.70001733	-0.7135084	-0.017468289
3.870024577068326e-08	0.7118921	-0.7016806	-0.016665617
3.8800423035139555e-08	0.7230259	-0.69022137	-0.015894491
3.89001203397046e-08	0.7334204	-0.67918384	-0.0151607
3.900035931464996e-08	0.74322784	-0.6684543	-0.01445826
3.9100004593840076e-08	0.75238216	-0.6581494	-0.013795754
3.920021647098194e-08	0.7610332	-0.64814174	-0.013165471
3.9300465761054385e-08	0.76917064	-0.6384778	-0.012570547
3.9400128995877246e-08	0.7767862	-0.6292038	-0.012013486
3.9500308505318894e-08	0.78400016	-0.6202045	-0.011486916
3.960055524976512e-08	0.7908095	-0.61151016	-0.010992102
3.970024016746786e-08	0.79720515	-0.6031599	-0.01053041
3.980041516805864e-08	0.80328333	-0.5950516	-0.0100953635
3.990008960665908e-08	0.80901015	-0.587252	-0.009689687
4.000034329365653e-08	0.81447107	-0.57966375	-0.009307425
4.0100522867805023e-08	0.8196508	-0.5723251	-0.008949695
4.0200180122113756e-08	0.8245489	-0.5652542	-0.008616404
4.030043449897674e-08	0.8292388	-0.55835956	-0.008302387
4.040011221624226e-08	0.8336824	-0.55171037	-0.00800997
4.050027799452761e-08	0.83794373	-0.5452241	-0.0077347145
4.060048817018051e-08	0.8420165	-0.53892004	-0.0074767605
4.070018568020802e-08	0.8458929	-0.53282195	-0.0072362856
4.080039465854334e-08	0.8496248	-0.52685726	-0.0070097623
4.090002679943452e-08	0.8531834	-0.5210813	-0.006798655
4.100024505438753e-08	0.8566202	-0.51541805	-0.0065995743
4.110048191209432e-08	0.8599243	-0.5098922	-0.006412911
4.120012994298422e-08	0.86308557	-0.50452834	-0.0062389057
4.1300339789065445e-08	0.86614877	-0.4992569	-0.006074821
4.140003101846022e-08	0.86908835	-0.49412745	-0.0059217378
4.150023290545112e-08	0.87194157	-0.48908037	-0.0057774633
4.160041060296311e-08	0.87469894	-0.48413676	-0.005642248
4.170009646676699e-08	0.8773543	-0.4793129	-0.0055161393
4.180033449926666e-08	0.8799411	-0.4745523	-0.0053973077
4.1900484755524716e-08	0.88244706	-0.46988058	-0.005286135
4.200014582712137e-08	0.88486785	-0.46531034	-0.005182573
4.210040564769901e-08	0.88723433	-0.46078673	-0.0050851186
4.220006657578735e-08	0.8895224	-0.45635882	-0.004994586
4.230021826769182e-08	0.8917608	-0.45197362	-0.004909647
4.240045812925714e-08	0.8939438	-0.4476447	-0.0048303897
4.250014165606838e-08	0.8960613	-0.44339532	-0.004757016
4.2600312652680646e-08	0.8981385	-0.4391767	-0.0046884934
4.270049527470347e-08	0.90016824	-0.43500537	-0.0046249577
4.280018799102509e-08	0.90214366	-0.430898	-0.0045664757
4.29003853167896e-08	0.9040869	-0.42680988	-0.0045122737
4.3000020201128345e-08	0.90597975	-0.42278108	-0.0044627404
4.31002547231705e-08	0.9078468	-0.41876107	-0.004417152
4.320046610960899e-08	0.90967816	-0.41477174	-0.004375675
4.330009471404084e-08	0.9114661	-0.41083184	-0.0043383716
4.34002989268193e-08	0.9132334	-0.4068922	-0.004304691
4.350055111463675e-08	0.9149723	-0.4029708	-0.004274737
4.360020005516231e-08	0.9166735	-0.39908972	-0.004248584
4.3700355471205975e-08	0.91835773	-0.39520258	-0.0042258534
4.38000221763633e-08	0.9200098	-0.39134514	-0.004206703
4.3900272550521934e-08	0.921649	-0.38747293	-0.004190866
4.400043569725127e-08	0.92326564	-0.38360882	-0.004178428
4.410007750232613e-08	0.9248543	-0.37976664	-0.00416938
4.4200323933929355e-08	0.92643416	-0.37590006	-0.004163581
4.4300515260679235e-08	0.92799604	-0.37203145	-0.0041610776
4.4400148402291345e-08	0.92953336	-0.36817735	-0.0041618505
4.450036467669694e-08	0.93106496	-0.36429062	-0.0041659013
4.460005316054309e-08	0.93257505	-0.36041147	-0.004173192
4.470023027578858e-08	0.9340798	-0.3564972	-0.004183824
4.4800397807684774e-08	0.9355731	-0.35256404	-0.004197792
4.490007525707686e-08	0.9370483	-0.34862795	-0.0042150347
4.500031136568571e-08	0.93852234	-0.34464425	-0.0042357813
4.510045520743044e-08	0.93998635	-0.34063533	-0.004259986
4.520011672545589e-08	0.94143546	-0.33661374	-0.0042875903
4.530036958921639e-08	0.9428862	-0.33253264	-0.0043189665
4.540001605621767e-08	0.9443218	-0.3284373	-0.0043538334
4.550016715252711e-08	0.9457595	-0.32427844	-0.0043926802
4.560039889345586e-08	0.9471936	-0.3200695	-0.0044354796
4.57000796457305e-08	0.94861585	-0.31583333	-0.0044820593
4.580024432825601e-08	0.9500418	-0.3115221	-0.0045330427
4.590042666246902e-08	0.9514653	-0.30715114	-0.0045883693
4.600010544381256e-08	0.9528796	-0.30273917	-0.0046478906
4.6100330764272834e-08	0.9543002	-0.2982351	-0.0047124205
4.620046742227603e-08	0.95571864	-0.29366222	-0.004781779
4.630012761415649e-08	0.95712984	-0.28903374	-0.004855872
4.640037582780534e-08	0.9585495	-0.28429484	-0.004935739
4.650002215809348e-08	0.95996094	-0.27949622	-0.0050206883
4.6600171463698173e-08	0.9613802	-0.27457896	-0.005111932
4.6700419528383645e-08	0.96280193	-0.2695558	-0.00520946
4.680008636092891e-08	0.96421653	-0.2644551	-0.005312888
4.690023620542829e-08	0.9656394	-0.25921568	-0.005423665
4.700044376093518e-08	0.9670645	-0.25385147	-0.0055417707
4.710012692850359e-08	0.96848357	-0.24838686	-0.0056668734
4.720031366748221e-08	0.969911	-0.24275723	-0.0058007175
4.730046862124817e-08	0.9713389	-0.23698306	-0.0059431237
4.74001420223008e-08	0.97276056	-0.2310822	-0.006093909
4.7500376479553264e-08	0.9741901	-0.22498289	-0.0062552295
4.760000357339548e-08	0.97561014	-0.2187459	-0.0064258054
4.7700167601413854e-08	0.9770363	-0.21228877	-0.0066082315
4.780041962434017e-08	0.9784606	-0.20562668	-0.0068025067
4.7900066292335085e-08	0.9798719	-0.19879477	-0.007007953
4.80002034779253e-08	0.98128396	-0.19170475	-0.0072276173
4.810043306675799e-08	0.9826889	-0.18436842	-0.007461631
4.820011058702533e-08	0.98407525	-0.17681934	-0.007709312
4.8300268261718505e-08	0.98545426	-0.16896328	-0.007974206
4.8400446253182436e-08	0.98681605	-0.16081682	-0.008256296
4.8500129804558866e-08	0.98814934	-0.15240538	-0.008555131
4.86003305562308e-08	0.98946285	-0.14362371	-0.008874947
4.8700469400250556e-08	0.99074304	-0.13449928	-0.009215285
4.880013575948094e-08	0.99197847	-0.12505007	-0.009575898
4.890037941637001e-08	0.99317396	-0.115152314	-0.009961979
4.9000001622476995e-08	0.99430656	-0.104899764	-0.0103703085
4.9100149091305004e-08	0.99537885	-0.09414867	-0.010806968
4.9200401418379195e-08	0.99637413	-0.08291216	-0.011271806
4.9300051194930416e-08	0.9972719	-0.07124422	-0.011762736
4.940018374527022e-08	0.9980667	-0.058988582	-0.0122863855
4.950040840960358e-08	0.99873626	-0.04615735	-0.012842189
4.9600083063935295e-08	0.99925697	-0.032804955	-0.013427408
4.97002327157293e-08	0.9996112	-0.018762631	-0.014048797
4.9800412031297273e-08	0.9997698	-0.004055964	-0.014704296
4.9900093575875986e-08	0.99970406	0.011264167	-0.0153901605
5.0000286290263874e-08	0.99938047	0.027382866	-0.016112717
5.0100425865831426e-08	0.9987628	0.044241853	-0.016866747
5.0200092603709587e-08	0.9978161	0.06178845	-0.017646546
5.030033061570608e-08	0.9964863	0.08022685	-0.018456925
5.04004640702306e-08	0.9947332	0.09945116	-0.019287923
5.050010536545625e-08	0.99251807	0.1193846	-0.020130029
5.06003582281165e-08	0.9897642	0.14024451	-0.020984871
5.070001009429551e-08	0.9864527	0.16176221	-0.02183275
5.0800145624857835e-08	0.98249686	0.18414044	-0.022671755
5.090037552932939e-08	0.97785664	0.20725338	-0.023485716
5.100005540488488e-08	0.9725218	0.23088631	-0.024255468
5.1100212299700614e-08	0.9663992	0.2552034	-0.024973787
5.1200405226284814e-08	0.9594809	0.28000608	-0.025621334
5.1300085858862186e-08	0.95179236	0.30504403	-0.026179617
5.140029100895721e-08	0.9432495	0.33045182	-0.026639849
5.150044651168241e-08	0.93390644	0.35594818	-0.026985848
5.160012265385793e-08	0.9238373	0.3812793	-0.027206903
5.170036646312863e-08	0.9129793	0.40656367	-0.027298262
5.180000601456125e-08	0.901519	0.4313616	-0.027255807