# t (s)	mx ()	my ()	mz ()
0	0.099875234	0.94881475	0.29962572
1.0008677244559556e-10	0.39032537	0.8717639	0.2946125
2.001676481837976e-10	0.6425214	0.7089789	0.2886188
3.0002163369482517e-10	0.82906866	0.48628378	0.2740832
4.001000768645052e-10	0.9362572	0.24017367	0.2548246
5.001724256667767e-10	0.97034216	-0.00359556	0.24028368
6.00002766394696e-10	0.9423083	-0.23729858	0.23456237
7.000815223491991e-10	0.85712564	-0.45828295	0.23341711
8.00163891279286e-10	0.720623	-0.6537899	0.22887015
9.000074063520782e-10	0.54913217	-0.8067497	0.21631011
1.0000938973759465e-09	0.36463073	-0.9095214	0.19783975
1.1001761802101388e-09	0.18481709	-0.965942	0.17962936
1.200012036101803e-09	0.015874509	-0.9856224	0.16685015
1.3000919001532815e-09	-0.1449972	-0.9759763	0.16117506
1.4001740005215657e-09	-0.3008264	-0.9396747	0.16115183
1.5000156841440906e-09	-0.45153013	-0.8768576	0.16308717
1.6001048893538402e-09	-0.5930173	-0.7881543	0.16256596
1.7001959427091078e-09	-0.7166583	-0.679149	0.15631272
1.8000456152617894e-09	-0.81522447	-0.5604321	0.14373413
1.9001365477606692e-09	-0.8872515	-0.442914	0.12667283
2.000225021121107e-09	-0.93561614	-0.33536968	0.108115256
2.1000693452739255e-09	-0.9658613	-0.2419252	0.0906142
2.2001541703851517e-09	-0.9836687	-0.16241714	0.075530574
2.300238211684984e-09	-0.99327946	-0.09538768	0.0634313
2.4000794712730402e-09	-0.99765474	-0.038500793	0.05430933
2.5001630761193035e-09	-0.9986696	0.01107694	0.047860242
2.6000039585892836e-09	-0.99737513	0.055477213	0.04380194
2.7000875779373667e-09	-0.99427307	0.09704153	0.04182617
2.8001715747528103e-09	-0.9894829	0.13753685	0.04170395
2.900012900669011e-09	-0.9828416	0.17851342	0.043225665
3.000098940801445e-09	-0.9738827	0.22159788	0.046204
3.100186151407842e-09	-0.9619576	0.26786694	0.050409257
3.200030895661426e-09	-0.9462517	0.3180303	0.05551635
3.300119814945978e-09	-0.9257097	0.37269396	0.061103534
3.40021011655789e-09	-0.89941275	0.43145537	0.06654139
3.5000602489760067e-09	-0.8667796	0.49307537	0.07104341
3.6001568003608562e-09	-0.8276054	0.5559335	0.07378082
3.7000115039526983e-09	-0.7829752	0.61715937	0.07397559
3.800105692523353e-09	-0.73465395	0.67425513	0.071131125
3.900204109844549e-09	-0.6856394	0.72460663	0.06514356
4.000058089319909e-09	-0.6393896	0.76643497	0.056341626
4.100157180044861e-09	-0.598897	0.79919416	0.04526996
4.200008894277381e-09	-0.56699586	0.8227442	0.032681055
4.300105556467287e-09	-0.5453765	0.83765966	0.019182658
4.4002026017192525e-09	-0.53516394	0.84442663	0.0053767483
4.500055854696981e-09	-0.53663504	0.84346884	-0.008224485
4.600149973805577e-09	-0.54943	0.8349546	-0.021252876
4.7000046988283365e-09	-0.57249963	0.81890106	-0.03320188
4.800101999213423e-09	-0.60434514	0.79517245	-0.043642085
4.9002014516735615e-09	-0.642721	0.7639505	-0.052031804
5.000055047699822e-09	-0.68485874	0.72596276	-0.057898153
5.1001524894813265e-09	-0.7281203	0.68229574	-0.060966004
5.200007555584669e-09	-0.7696457	0.6350728	-0.061167885
5.300106300560148e-09	-0.8075302	0.58641243	-0.05873583
5.400203601589112e-09	-0.84033394	0.5388616	-0.054131173
5.500054004125911e-09	-0.8674529	0.49469298	-0.047957957
5.600148550281643e-09	-0.88910466	0.45536605	-0.04077049
5.700240912308397e-09	-0.90569	0.4221231	-0.03307467
5.800089947613097e-09	-0.91782176	0.39565796	-0.025244981
5.900181757074024e-09	-0.9261907	0.37611514	-0.01746102
6.0000298020085595e-09	-0.9312805	0.36363012	-0.009865625
6.100121384004944e-09	-0.93348914	0.35805666	-0.0024495232
6.200211203043336e-09	-0.93300474	0.35929197	0.004782462
6.300059130885676e-09	-0.9298767	0.36714286	0.011836588
6.400150054525665e-09	-0.9239774	0.38145337	0.018749395
6.500240436376349e-09	-0.9150732	0.40195456	0.025458401
6.600089159322012e-09	-0.902878	0.42819414	0.031833477
6.7001814798346556e-09	-0.8869974	0.45971736	0.03770551
6.800032089603893e-09	-0.86725724	0.49551478	0.042760618
6.900125120880468e-09	-0.84351856	0.534574	0.04667086
7.000221260129498e-09	-0.81612617	0.57530785	0.049049377
7.100072099660815e-09	-0.78591424	0.61588156	0.04957012
7.200168970886085e-09	-0.75397414	0.65470135	0.04802649
7.300023942974578e-09	-0.7221051	0.68993336	0.04438624
7.400119245892716e-09	-0.69203293	0.72041905	0.038775314
7.500217723114802e-09	-0.6657148	0.74515444	0.03149996
7.600071823058381e-09	-0.64484775	0.7635932	0.022985628
7.70016691041425e-09	-0.63058674	0.775637	0.013639161
7.800018606489242e-09	-0.62377053	0.78124034	0.003956292
7.900116654853728e-09	-0.624625	0.7805465	-0.005675368
8.000216913475887e-09	-0.63293004	0.7737035	-0.014817777
8.100072257104757e-09	-0.64792144	0.7609841	-0.023058627
8.20016886057282e-09	-0.66853714	0.74268246	-0.030074
8.300023579138233e-09	-0.69322103	0.7194452	-0.035516016
8.40012368931785e-09	-0.7204362	0.6919923	-0.03917753
8.500220052466355e-09	-0.74843365	0.6615075	-0.04092452
8.60007044704622e-09	-0.77560246	0.62944967	-0.040777605
8.700166117291787e-09	-0.80082047	0.59717417	-0.038886324
8.800018246286026e-09	-0.8230785	0.56633896	-0.035512377
8.900113423158677e-09	-0.841967	0.5381552	-0.03095001
9.000207280253493e-09	-0.8572203	0.5138253	-0.025526669
9.100060687346694e-09	-0.86882627	0.49423504	-0.019550348
9.200154979005796e-09	-0.8769733	0.4798581	-0.013237163
9.300006405935012e-09	-0.8817927	0.47108728	-0.006810936
9.400099816005361e-09	-0.883463	0.46799964	-0.00039258756
9.500191866521459e-09	-0.88207614	0.47056955	0.0058754534
9.60004197069245e-09	-0.8777014	0.47856227	0.01185932
9.700135677555703e-09	-0.8703345	0.49165517	0.017458715
9.80022975379498e-09	-0.8599968	0.50931084	0.022507621
9.900081051202336e-09	-0.8467838	0.5307742	0.02682051
1.0000177846808022e-08	-0.83079684	0.5552754	0.030224595
1.0100030210313047e-08	-0.8124439	0.58166206	0.032509435
1.0200125723219245e-08	-0.792178	0.6089094	0.033517428
1.0300224453273841e-08	-0.7708108	0.63575447	0.03312745
1.0400077092866165e-08	-0.7493671	0.66097885	0.031311408
1.050017506945035e-08	-0.72884417	0.68367946	0.028118959
1.0600030572871947e-08	-0.7104719	0.702915	0.023714498
1.070012918141636e-08	-0.6952143	0.7181686	0.018301712
1.0800226058111794e-08	-0.6839911	0.72899544	0.012168594
1.0900080146167705e-08	-0.677423	0.735183	0.0056390706
1.1000179947798392e-08	-0.6757812	0.7367136	-0.0010022041
1.1100034882207985e-08	-0.67905456	0.7336603	-0.0074127936
1.1200131074555171e-08	-0.68692756	0.7262083	-0.013330433
1.1300230320693239e-08	-0.69878924	0.7146861	-0.018474126
1.1400083945738763e-08	-0.71376765	0.699605	-0.02261142
1.1500182171871914e-08	-0.73096126	0.6815157	-0.025595581
1.1600035111894817e-08	-0.74925643	0.6612827	-0.027314201
1.1700130827395296e-08	-0.767743	0.63971233	-0.027754128
1.180022863038503e-08	-0.785488	0.61783546	-0.026963508
1.1900082088391659e-08	-0.8017297	0.596699	-0.025067002
1.2000181693192332e-08	-0.816014	0.57713634	-0.022220338
1.2100036177439414e-08	-0.827919	0.5600643	-0.018627292
1.2200132049366257e-08	-0.8373035	0.54606885	-0.014466872
1.2300228336162082e-08	-0.8440498	0.5356921	-0.009935859
1.2400080301623616e-08	-0.84813976	0.52926457	-0.005219686
1.2500177527038797e-08	-0.8496256	0.52690315	-0.00045254632
1.2600030314487422e-08	-0.84855586	0.52860665	0.004198151
1.270012322965785e-08	-0.844998	0.5342191	0.008617939
1.2800217243589978e-08	-0.83904725	0.5434328	0.012660911
1.2900068544786397e-08	-0.8308613	0.5557693	0.016185006
1.3000163350133192e-08	-0.8205964	0.57071936	0.019075697
1.3100018244500835e-08	-0.80858374	0.58753467	0.021196097
1.3200116404440817e-08	-0.7951515	0.6055375	0.022451688
1.330021437594156e-08	-0.7808264	0.6238833	0.022762079
1.3400069206710706e-08	-0.76624596	0.64172536	0.022098279
1.3500167218208866e-08	-0.75201464	0.65839463	0.020475708
1.3600022594052851e-08	-0.7389039	0.6731452	0.01797378
1.3700121629959464e-08	-0.7275294	0.68550014	0.014701804
1.380021929376607e-08	-0.7185235	0.6950052	0.0108280955
1.3900074088904296e-08	-0.71236324	0.70137095	0.0065563903
1.4000172225983981e-08	-0.7093137	0.70448256	0.0020757627
1.4100026762464665e-08	-0.7094928	0.7043011	-0.0023777194
1.4200124645064943e-08	-0.71280986	0.70091647	-0.006616837
1.4300221556724012e-08	-0.7189919	0.69452655	-0.0104373675
1.4400078399180567e-08	-0.7275821	0.68546575	-0.013664889
1.4500176277587312e-08	-0.7380707	0.6741042	-0.01618186
1.4600030387936289e-08	-0.74978685	0.6610058	-0.017884698
1.4700126273702007e-08	-0.7621439	0.6466976	-0.018735796
1.4800223914734008e-08	-0.77449644	0.6318553	-0.018730763
1.4900080702612634e-08	-0.7862619	0.6171817	-0.01791674
1.5000178013487358e-08	-0.7970332	0.6032564	-0.016370336
1.510003091316999e-08	-0.8063962	0.59074324	-0.014206117
1.520012531265202e-08	-0.8141325	0.580099	-0.011537721
1.5300221498056186e-08	-0.82004344	0.5717701	-0.008501725
1.540007246549053e-08	-0.8240212	0.5660647	-0.005239332
1.55001680447543e-08	-0.8260452	0.56313	-0.0018638428
1.5600022063108244e-08	-0.82611275	0.56303203	0.0014848884
1.5700116325525587e-08	-0.82427245	0.5657038	0.0047050556
1.580021321431002e-08	-0.82060945	0.57096946	0.0076764403
1.5900066168076984e-08	-0.8152698	0.578524	0.010287544
1.6000159424012552e-08	-0.8084076	0.5880288	0.012454223
1.6100012583841453e-08	-0.80029094	0.5989879	0.014081496
1.620010855445576e-08	-0.79117787	0.6109455	0.01510909
1.6300204934965528e-08	-0.7814437	0.62333477	0.015486377
1.6400060433262267e-08	-0.7715212	0.63557875	0.015196303
1.6500156908793444e-08	-0.76180536	0.6472114	0.014249931
1.6600013306819395e-08	-0.7527946	0.6577003	0.012696494
1.670011177985614e-08	-0.74488014	0.66668594	0.010604213
1.6800211781262003e-08	-0.73847085	0.67381275	0.008079022
1.6900068641800084e-08	-0.73388374	0.6788333	0.005252016
1.7000167463372243e-08	-0.7313039	0.6816281	0.0022468143
1.7100020935634374e-08	-0.7308363	0.6821328	-0.0007790947
1.7200119370152574e-08	-0.73245126	0.68038875	-0.003699055
1.7300219162595706e-08	-0.7360104	0.6765175	-0.0063729063
1.7400074746716106e-08	-0.7412542	0.67074245	-0.00867852
1.7500173220518453e-08	-0.7478832	0.663317	-0.010531823
1.7600027521796063e-08	-0.755486	0.6546234	-0.011854613
1.7700125374021076e-08	-0.7636924	0.64501834	-0.012612639
1.7800224783429242e-08	-0.77207696	0.63495696	-0.012790779
1.7900076830755144e-08	-0.7802361	0.62491435	-0.012407682
1.8000173745136394e-08	-0.78786933	0.61528337	-0.011503589
1.8100025117962485e-08	-0.79465353	0.60652333	-0.010145291
1.8200123374938205e-08	-0.8003949	0.5989562	-0.008403838
1.8300222902518853e-08	-0.80490714	0.5929065	-0.006369946
1.8400076797309162e-08	-0.80807143	0.5886084	-0.004142601
1.8500171535993643e-08	-0.80984163	0.58618337	-0.0018056923
1.860002488265121e-08	-0.8101934	0.5856998	0.0005362284
1.8700123045897342e-08	-0.80915415	0.5871276	0.002804201
1.880021919710242e-08	-0.8067869	0.5903612	0.004906794
1.8900072053808764e-08	-0.8032069	0.59520245	0.0067609316
1.9000165459180688e-08	-0.7985411	0.60142606	0.008305455
1.9100020889044652e-08	-0.7929951	0.6087002	0.009474021
1.920011737262644e-08	-0.78676474	0.61671746	0.010226827
1.9300213788454216e-08	-0.780119	0.6250952	0.010531616
1.9400068146696736e-08	-0.7733577	0.63344127	0.010379219
1.9500165953095963e-08	-0.76674587	0.6414362	0.009779158
1.9600021855619638e-08	-0.76061296	0.6487099	0.008765173
1.9700119154441862e-08	-0.75521106	0.6550066	0.0073829303
1.980021804458634e-08	-0.75080425	0.66006917	0.005702316
1.9900072903079436e-08	-0.74759763	0.6637119	0.0038098455
2.0000170352470614e-08	-0.7457117	0.6658384	0.0017871058
2.0100026045690327e-08	-0.74522	0.66639096	-0.00026118438
2.020012245945125e-08	-0.74611104	0.66538954	-0.0022502528
2.0300218842032892e-08	-0.7483058	0.66291183	-0.004085739
2.0400071411252175e-08	-0.75164825	0.6591083	-0.005684506
2.0500169443393587e-08	-0.755955	0.6541524	-0.0069885724
2.0600023852911068e-08	-0.7609676	0.6483046	-0.007942375
2.070012199701585e-08	-0.7664491	0.6418088	-0.008519561
2.0800219153970203e-08	-0.77212	0.63497424	-0.008705347
2.0900073616329394e-08	-0.77770764	0.62812275	-0.008507244
2.1000168000009516e-08	-0.7830003	0.621522	-0.0079478305
2.1100021975575905e-08	-0.78776443	0.61548495	-0.0070677428
2.120011572741111e-08	-0.7918497	0.61023426	-0.0059125423
2.1300209740319716e-08	-0.79510856	0.6059953	-0.004542417
2.1400062077860555e-08	-0.79744035	0.6029342	-0.0030252584
2.1500155923883043e-08	-0.7987984	0.6011406	-0.0014205007
2.1600011543018825e-08	-0.7991546	0.6006687	0.00019713906
2.170010871382615e-08	-0.798524	0.6015038	0.0017698401
2.1800204008206934e-08	-0.79695123	0.6035792	0.0032314598
2.1900057842572785e-08	-0.79452133	0.6067649	0.004522245
2.2000156665453183e-08	-0.79133105	0.6109094	0.00559873
2.2100009377521283e-08	-0.78753185	0.6157897	0.0064147906
2.220010647897908e-08	-0.7832667	0.6211983	0.006943926
2.230020477323475e-08	-0.77872646	0.62687635	0.00716523
2.2400058666533876e-08	-0.7741188	0.63255703	0.007073817
2.2500154719706e-08	-0.7696234	0.6380219	0.006677492
2.2600011082194036e-08	-0.76545954	0.64301705	0.005999896
2.2700106238070063e-08	-0.7617926	0.64736414	0.0050723506
2.2800204788348795e-08	-0.7587946	0.65088284	0.003941845
2.290005917521248e-08	-0.7565985	0.6534403	0.0026663083
2.3000153906258937e-08	-0.7552818	0.6549656	0.0013001508
2.3100006441767844e-08	-0.75489366	0.6554142	-8.670505e-05
2.3200102082221255e-08	-0.75542784	0.6547969	-0.0014377115
2.330020022578854e-08	-0.7568368	0.65316427	-0.0026895162
2.3400054052009952e-08	-0.75902236	0.6506182	-0.0037859126
2.3500149935079064e-08	-0.7618688	0.6472775	-0.004687364
2.360000205521601e-08	-0.76520985	0.6433198	-0.0053553684
2.3700101296717765e-08	-0.7688923	0.6389114	-0.0057708295
2.3800199229508e-08	-0.772731	0.6342631	-0.0059218565
2.3900053457846176e-08	-0.776542	0.6295936	-0.0058113793
2.4000150747964296e-08	-0.7801797	0.6250848	-0.0054526837
2.4100005498538177e-08	-0.7834793	0.6209502	-0.0048714355
2.4200104535277172e-08	-0.78633106	0.61734164	-0.004097256
2.4300201994046517e-08	-0.7886256	0.6144142	-0.0031704525
2.440005432902722e-08	-0.7902854	0.61228293	-0.002137404
2.4500151849991544e-08	-0.791272	0.6110108	-0.0010393854
2.4600006326874323e-08	-0.79156077	0.61063755	7.119523e-05
2.4700103911239053e-08	-0.7911604	0.611155	0.0011533969
2.4800200465280013e-08	-0.79010165	0.61252004	0.0021604924
2.4900055942752007e-08	-0.7884456	0.6146458	0.0030504274
2.5000151865367903e-08	-0.7862627	0.6174306	0.00379273
2.510000576220844e-08	-0.7836615	0.62072414	0.004355684
2.5200102807123928e-08	-0.7807442	0.6243857	0.0047214227
2.5300198487325797e-08	-0.77764446	0.62823987	0.0048762187
2.5400051423716455e-08	-0.77450526	0.63210535	0.0048174574
2.5500146311166206e-08	-0.7714486	0.6358332	0.0045511303
2.5600001593453446e-08	-0.7686221	0.6392493	0.004093805
2.570009646084295e-08	-0.7661351	0.642231	0.003467013
2.5800195244923556e-08	-0.76410055	0.6446534	0.0027026325
2.590004811212546e-08	-0.76260597	0.64642346	0.0018397201
2.6000145482728713e-08	-0.7617012	0.647491	0.00091473607
2.610024187678486e-08	-0.76141894	0.64782363	-2.76246e-05
2.6200095166583353e-08	-0.7617551	0.6474277	-0.0009426659
2.6300193356258887e-08	-0.76267976	0.64633644	-0.0017946284
2.6400048094702042e-08	-0.76412994	0.6446192	-0.0025432985
2.6500144516242655e-08	-0.76603067	0.64235705	-0.003161835
2.660024122786298e-08	-0.7682792	0.6396642	-0.0036246933
2.6700096052366894e-08	-0.7707573	0.63667506	-0.00391562
2.6800193637156583e-08	-0.7733593	0.63351196	-0.004028503
2.6900049360881896e-08	-0.77595514	0.63033104	-0.003963455
2.7000147127873302e-08	-0.7784449	0.627256	-0.0037286214
2.71000002816809e-08	-0.78071433	0.6244321	-0.0033405623
2.720009688933799e-08	-0.7826856	0.6219627	-0.002818841
2.730019332724871e-08	-0.7842802	0.6199539	-0.0021905582
2.7400046362082532e-08	-0.7854415	0.6184845	-0.0014873106
2.7500143492247583e-08	-0.7861399	0.6175982	-0.00073756697
2.7600239684918192e-08	-0.7863564	0.61732304	2.4223258e-05
2.7700092936617706e-08	-0.7860959	0.61765414	0.0007639714
2.7800187937519893e-08	-0.7853795	0.6185633	0.0014546617
2.790004145039408e-08	-0.7842504	0.61999214	0.0020651934
2.8000140698012437e-08	-0.7827585	0.6218721	0.0025744978
2.8100237395830275e-08	-0.78097564	0.62410724	0.0029615338
2.8200090695784848e-08	-0.7789875	0.626585	0.003211898
2.8300188526803667e-08	-0.7768728	0.6292037	0.0033187985
2.8400044384713438e-08	-0.7747345	0.63183427	0.0032800015
2.8500141582648483e-08	-0.7726556	0.6343751	0.003099922
2.8600238998482012e-08	-0.77073145	0.6367123	0.0027891914
2.8700094232742045e-08	-0.76904786	0.6387461	0.0023652639
2.880019232196088e-08	-0.76766694	0.6404063	0.001847164
2.8900046220593666e-08	-0.76665086	0.64162356	0.0012621963
2.9000142321193263e-08	-0.76603234	0.6423626	0.00063494965
2.9100239045470114e-08	-0.7658328	0.64260066	-4.5038296e-06
2.920009497995214e-08	-0.76605004	0.6423415	-0.0006260774
2.930019183602061e-08	-0.7666642	0.64160764	-0.0012056574
2.9400044789043777e-08	-0.7676343	0.6404458	-0.0017160838
2.9500142159279472e-08	-0.76891124	0.6389111	-0.002139145
2.9600238978952658e-08	-0.7704271	0.6370818	-0.002457359
2.9700095990984567e-08	-0.7721033	0.635049	-0.0026594182
2.980019279079599e-08	-0.7738689	0.6328964	-0.0027407997
2.990004562057587e-08	-0.7756362	0.6307301	-0.002701144
3.000014214597504e-08	-0.7773368	0.6286342	-0.0025455754
3.01002408374468e-08	-0.77889574	0.62670314	-0.002284177
3.020009406741543e-08	-0.78024757	0.625021	-0.0019322634
3.0300192184983004e-08	-0.781348	0.6236464	-0.001505863
3.0400046702975284e-08	-0.78215295	0.62263787	-0.0010272407
3.0500143711363704e-08	-0.7826408	0.6220254	-0.0005159386
3.06002389299325e-08	-0.7827975	0.6218283	4.342152e-06
3.0700091033722244e-08	-0.78262603	0.62204397	0.00051006686
3.080018743656714e-08	-0.78214073	0.6226533	0.0009825442
3.090004253066887e-08	-0.7813715	0.6236173	0.0014003201
3.100014061593953e-08	-0.7803534	0.62488943	0.0017488578
3.110023536722378e-08	-0.7791365	0.6264049	0.0020137578
3.1200088978395406e-08	-0.77778006	0.6280873	0.002185249
3.130018696096383e-08	-0.77633846	0.6298675	0.0022588135
3.140004123850938e-08	-0.7748822	0.6316577	0.0022330463
3.1500136264737846e-08	-0.773468	0.63338864	0.0021111097
3.160023344567411e-08	-0.77216005	0.6349828	0.0019003486
3.170008779090828e-08	-0.7710161	0.63637173	0.0016127208
3.180018226354341e-08	-0.7700778	0.6375073	0.0012611799
3.190003919139688e-08	-0.7693866	0.6383419	0.00086418196
3.2000136030564984e-08	-0.768964	0.63885117	0.0004383809
3.210023521729685e-08	-0.7688246	0.63901913	4.081556e-06
3.220008932951647e-08	-0.7689668	0.63884795	-0.00041836887
3.2300190009389286e-08	-0.7693776	0.6383529	-0.00081273715
3.240004462127325e-08	-0.7700297	0.63756573	-0.0011605852
3.2500143839012726e-08	-0.7708908	0.6365239	-0.0014495591
3.260024111530053e-08	-0.7719154	0.6352807	-0.0016677037
3.270009555502225e-08	-0.7730511	0.63389826	-0.0018072063
3.280019196119585e-08	-0.77425015	0.63243335	-0.0018648405
3.29000471684145e-08	-0.77545315	0.6309582	-0.0018401429
3.300014591133005e-08	-0.7766135	0.6295301	-0.0017363734
3.310024288619685e-08	-0.77767956	0.6282135	-0.0015602112
3.320009465476446e-08	-0.7786063	0.6270655	-0.0013219424
3.330019395928997e-08	-0.77936256	0.62612605	-0.0010324067
3.3400048914905754e-08	-0.7799176	0.62543523	-0.00070675154
3.3500146092135733e-08	-0.7802559	0.62501353	-0.0003583461
3.3600000150777215e-08	-0.7803675	0.6248743	-4.2961096e-06
3.370009829958532e-08	-0.7802538	0.6250161	0.0003418214
3.380019678812892e-08	-0.77992505	0.62542593	0.00066455733
3.3900050907952565e-08	-0.77940166	0.62607753	0.0009500178
3.4000148608618075e-08	-0.77870786	0.62693954	0.001188243
3.410000035051996e-08	-0.7778805	0.6279653	0.0013690112
3.4200096026510615e-08	-0.7769537	0.62911093	0.0014867588
3.4300192992569716e-08	-0.7759716	0.63032144	0.0015373582
3.440004607102e-08	-0.77498007	0.6315398	0.0015202711
3.45001434817321e-08	-0.77401763	0.6327189	0.0014377214
3.460023950738633e-08	-0.773128	0.63380575	0.0012947558
3.4700093118926794e-08	-0.77235	0.6347537	0.0010995192
3.480019126539707e-08	-0.7717118	0.63552964	0.00086082256
3.490004661306086e-08	-0.771241	0.636101	0.00059122813
3.500014164037795e-08	-0.7709522	0.6364511	0.00030199607
3.510023833894369e-08	-0.7708551	0.6365687	6.8532886e-06
3.520009135977742e-08	-0.77094877	0.63645536	-0.0002804229
3.530018921352331e-08	-0.7712245	0.6361211	-0.0005488365
3.540004312316907e-08	-0.7716641	0.6355876	-0.0007858792
3.5500139267515016e-08	-0.772246	0.6348803	-0.0009831607
3.5600237391262055e-08	-0.77294	0.6340352	-0.0011325076
3.570009198841635e-08	-0.77371037	0.63309497	-0.001228532
3.580018882812473e-08	-0.7745253	0.632098	-0.0012689594
3.590004092682036e-08	-0.7753442	0.6310935	-0.0012533535
3.6000137689152304e-08	-0.77613527	0.63012075	-0.0011838519
3.6100235852868195e-08	-0.7768634	0.6292233	-0.0010649052
3.620009396750801e-08	-0.7774976	0.62844	-0.00090343563
3.630019104357922e-08	-0.77801603	0.62779844	-0.00070677977
3.6400044894113655e-08	-0.77839744	0.6273258	-0.0004852565
3.6500142221984136e-08	-0.7786312	0.62703586	-0.0002479796
3.660024054037882e-08	-0.7787099	0.6269382	-6.049825e-06
3.6700095067847284e-08	-0.77863455	0.62703174	0.00022945735
3.680019235048753e-08	-0.77841187	0.62730795	0.00044969624
3.690004949054839e-08	-0.778056	0.6277489	0.0006445934
3.700014752498687e-08	-0.7775837	0.6283335	0.0008072945
3.7100000751233456e-08	-0.77702016	0.62903	0.00093083875
3.7200097922981306e-08	-0.776389	0.62980837	0.0010114256
3.7300194834799924e-08	-0.7757203	0.6306317	0.0010462615
3.740005055671972e-08	-0.7750452	0.6314609	0.0010349953
3.750014792963487e-08	-0.7743901	0.632264	0.0009791555
3.7600003199127384e-08	-0.77378607	0.63300306	0.00088247063
3.7700098945902224e-08	-0.77325535	0.6336514	0.00074966985
3.780019504920022e-08	-0.7728208	0.63418126	0.00058758754
3.790004993019646e-08	-0.7724998	0.63457227	0.0004044442
3.8000147234361655e-08	-0.7723023	0.63481253	0.00020787818
3.810000083506996e-08	-0.7722348	0.6348947	7.703772e-06
3.820009841868043e-08	-0.77229667	0.6348195	-0.00018820367
3.830019463841675e-08	-0.7724821	0.63459384	-0.00037093164
3.8400048636304976e-08	-0.772779	0.63423216	-0.0005324767
3.8500146523342054e-08	-0.7731729	0.633752	-0.0006671221
3.8600241763900874e-08	-0.7736433	0.63317764	-0.0007692901
3.8700096262181076e-08	-0.7741663	0.6325382	-0.0008352694
3.8800194522588695e-08	-0.77472013	0.6318599	-0.00086346327
3.890004772177893e-08	-0.77527755	0.631176	-0.00085354113
3.900014579818308e-08	-0.77581674	0.6305133	-0.00080688077
3.9100240854891735e-08	-0.77631366	0.62990177	-0.0007264783
3.9200093410581156e-08	-0.7767469	0.6293676	-0.0006170108
3.930019041112079e-08	-0.7771019	0.6289295	-0.0004834439
3.9400043871947395e-08	-0.77736366	0.62860614	-0.00033278987
3.9500138173732976e-08	-0.7775247	0.62840706	-0.00017126268
3.96002367150629e-08	-0.77757996	0.6283387	-6.430887e-06
3.9700090879658016e-08	-0.77753	0.6284005	0.00015412226
3.980018973043105e-08	-0.7773794	0.62858665	0.00030435077
3.9900041835329264e-08	-0.7771377	0.62888527	0.0004373448
4.000014017873398e-08	-0.77681655	0.6292818	0.00054844806
4.0100238978799356e-08	-0.77643204	0.6297559	0.0006330606
4.0200094801246495e-08	-0.7760034	0.6302838	0.000688072
4.030018974040503e-08	-0.7755481	0.6308438	0.00071209314
4.040004300849966e-08	-0.7750884	0.63140833	0.00070471794
4.050014085418855e-08	-0.77464247	0.63195527	0.0006669833
4.060024085890036e-08	-0.7742301	0.6324603	0.0006012439
4.0700092805686434e-08	-0.77386963	0.6329014	0.0005112846
4.080018903632373e-08	-0.7735734	0.6332634	0.00040118134
4.090004309120711e-08	-0.7733544	0.63353074	0.00027671878
4.1000140019166345e-08	-0.7732192	0.6336958	0.00014308083
4.110023506279345e-08	-0.7731724	0.633753	6.6052075e-06
4.1200087018088875e-08	-0.7732132	0.6337031	-0.00012638504
4.130018521867023e-08	-0.7733381	0.63355076	-0.00025083055
4.140003776509095e-08	-0.7735389	0.6333056	-0.00036095263
4.150013699841746e-08	-0.77380574	0.6329796	-0.00045285636
4.16002337771538e-08	-0.7741249	0.63258916	-0.0005227161
4.170008850859415e-08	-0.7744802	0.63215417	-0.00056802377
4.1800185891009435e-08	-0.77485687	0.6316926	-0.0005876375
4.190003922639185e-08	-0.77523625	0.6312271	-0.0005813031
4.200013862664939e-08	-0.77560365	0.63077563	-0.0005499429
4.210023660274654e-08	-0.7759427	0.63035876	-0.00049555267
4.220008925043165e-08	-0.7762386	0.6299944	-0.00042130565
4.230018680609692e-08	-0.77648145	0.6296953	-0.00033056323
4.240004327190584e-08	-0.77666074	0.62947416	-0.0002280917
4.250014010202413e-08	-0.77677155	0.6293376	-0.000118133845
4.260023712274751e-08	-0.7768101	0.6292899	-5.8733626e-06
4.270009236466263e-08	-0.77677697	0.6293308	0.000103539904
4.2800187593289216e-08	-0.77667516	0.6294564	0.0002059795
4.290004117800998e-08	-0.7765113	0.6296585	0.00029672263
4.3000138558071845e-08	-0.776293	0.6299275	0.00037258264
4.310023700285002e-08	-0.7760314	0.6302496	0.00043041282
4.320009326888932e-08	-0.77573955	0.6306086	0.0004680898
4.330018946374749e-08	-0.77542967	0.6309895	0.00048465427
4.340004531559199e-08	-0.77511674	0.6313738	0.00047984463
4.350014277044757e-08	-0.77481306	0.63174635	0.0004543634
4.360024194134245e-08	-0.7745323	0.63209045	0.0004097959
4.3700097335902643e-08	-0.77428657	0.6323914	0.00034874395
4.380019318526163e-08	-0.7740847	0.6326385	0.00027395127
4.390004744568874e-08	-0.77393514	0.63282144	0.00018935728
4.4000141334276694e-08	-0.77384245	0.63293475	9.848265e-05
4.410023823130813e-08	-0.7738098	0.6329747	5.629007e-06
4.4200092480829543e-08	-0.773837	0.6329415	-8.491088e-05
4.4300189057915173e-08	-0.77392125	0.6328384	-0.00016966963
4.440004391792759e-08	-0.7740571	0.63267225	-0.0002447439
4.4500143266904863e-08	-0.774238	0.63245094	-0.0003074614
4.460024125922175e-08	-0.77445465	0.63218564	-0.00035522954
4.470009655245682e-08	-0.774696	0.6318899	-0.0003862942
4.4800195408094244e-08	-0.77495223	0.63157576	-0.00039989632
4.4900050159344044e-08	-0.7752105	0.63125885	-0.00039584158
4.500014944226062e-08	-0.77546084	0.6309514	-0.00037474176
4.5100003262432034e-08	-0.7756914	0.6306679	-0.0003380496
4.520010478148499e-08	-0.77589405	0.6304188	-0.0002875778
4.5300201953958704e-08	-0.7760599	0.6302146	-0.00022593485
4.540005737994057e-08	-0.7761828	0.6300633	-0.00015625951
4.550015551434709e-08	-0.7762589	0.62996954	-8.143971e-05
4.5600011852803027e-08	-0.7762859	0.62993634	-5.169609e-06
4.570010583682592e-08	-0.776264	0.6299633	6.9574606e-05
4.580020301507564e-08	-0.77619517	0.63004816	0.00013940598
4.590005622391668e-08	-0.77608395	0.630185	0.0002012999
4.6000153514517294e-08	-0.77593565	0.6303675	0.00025307987
4.6100006239098056e-08	-0.77575815	0.6305858	0.0002925288
4.620010518767738e-08	-0.7755593	0.6308304	0.00031842655
4.630020269975529e-08	-0.7753483	0.63108957	0.00032987146
4.640005524894834e-08	-0.77513534	0.6313511	0.0003267637
4.650015092444697e-08	-0.77492845	0.6316049	0.0003095637
4.660000613864971e-08	-0.7747376	0.631839	0.0002794618
4.670010418939816e-08	-0.77456975	0.63204473	0.00023793217
4.680019855658124e-08	-0.77443194	0.63221353	0.00018713473
4.690005328527826e-08	-0.77432984	0.6323386	0.00012964923
4.700015148535064e-08	-0.77426636	0.63241625	6.7838795e-05
4.7100006619998974e-08	-0.77424365	0.6324441	4.8035754e-06
4.7200104055689146e-08	-0.7742615	0.63242227	-5.6987465e-05
4.7300200768495276e-08	-0.77431834	0.6323527	-0.0001147376
4.740005776419577e-08	-0.7744103	0.63224	-0.0001659268
4.7500155240843537e-08	-0.7745329	0.63208973	-0.0002087364
4.7600007161735e-08	-0.77467966	0.6319101	-0.00024132934
4.770010553696528e-08	-0.77484405	0.6317085	-0.00026271425
4.780020285973367e-08	-0.77501816	0.6314949	-0.0002721601
4.790005896673855e-08	-0.77519405	0.6312791	-0.0002695794
4.800015645350242e-08	-0.7753645	0.63106966	-0.00025538832
4.810000951187178e-08	-0.7755219	0.6308764	-0.00023056741
4.820010557943617e-08	-0.77566016	0.6307064	-0.00019633243
4.8300202726357626e-08	-0.77577364	0.63056695	-0.00015446644
4.840005502876668e-08	-0.7758576	0.63046354	-0.00010709893
4.850014990645991e-08	-0.77591	0.6303991	-5.6193872e-05
4.8600001125761306e-08	-0.7759289	0.63037586	-4.2660745e-06
4.8700099018482703e-08	-0.77591443	0.6303937	4.6670706e-05
4.880019522678058e-08	-0.77586794	0.6304509	9.427887e-05
4.8900050963713506e-08	-0.7757925	0.6305437	0.00013650328
4.900014735907717e-08	-0.7756918	0.63066757	0.00017185342
4.9100002558456164e-08	-0.7755712	0.63081574	0.00019881935
4.920010022414153e-08	-0.7754359	0.63098204	0.00021656937
4.930019836742432e-08	-0.7752925	0.63115823	0.00022448887
4.940005190141984e-08	-0.77514744	0.63133633	0.00022249506
4.950015164451533e-08	-0.77500653	0.6315092	0.00021090839
4.9600005938993004e-08	-0.7748765	0.63166875	0.00019052732
4.9700103806339974e-08	-0.77476203	0.6318091	0.00016236285
4.9800201804257714e-08	-0.7746679	0.63192445	0.00012785711
4.990005486105941e-08	-0.7745981	0.63201	8.877844e-05
