# t (s)	mx ()	my ()	mz ()
0	0.099875234	0.94881475	0.29962572
1.0025030569870804e-10	0.20845702	0.96192014	0.175266
2.004139349932142e-10	0.26768	0.95801145	0.100766316
3.0004252079289014e-10	0.29818425	0.9526569	0.056213997
4.002706928228149e-10	0.31213304	0.94939643	0.02928162
5.004863077392766e-10	0.3161705	0.94842243	0.013111423
6.001153745713164e-10	0.31432074	0.9491229	0.0034241662
7.003005895545172e-10	0.3088913	0.9509088	-0.0024724486
8.005516662494619e-10	0.30124754	0.9533445	-0.0060667377
9.002040448023882e-10	0.29225802	0.95612514	-0.008278079
1.0003556988482915e-09	0.28229523	0.9591042	-0.009690644
1.1000135173137498e-09	0.27172655	0.9621455	-0.010623345
1.2002660640295827e-09	0.26058656	0.96521854	-0.011287784
1.3004156884676332e-09	0.24902758	0.9682628	-0.011799293
1.400049122601122e-09	0.23713556	0.97124213	-0.012230397
1.5002975961084624e-09	0.22478199	0.974174	-0.01263077
1.6004874858909837e-09	0.21203656	0.9770258	-0.013025181
1.700109948925832e-09	0.19894688	0.9797732	-0.013429004
1.8003110037365689e-09	0.18533354	0.98243695	-0.013858208
1.900551261820248e-09	0.17123139	0.9849895	-0.014318444
2.000180403315716e-09	0.1566979	0.98740196	-0.014812022
2.1003360459656575e-09	0.14152601	0.9896854	-0.01534884
2.200007863270713e-09	0.12582415	0.9917978	-0.015926993
2.3002421891793433e-09	0.109379604	0.9937382	-0.016555607
2.400376836849928e-09	0.09224729	0.99546576	-0.017233388
2.5000249591663024e-09	0.07444939	0.99694407	-0.017959345
2.600277309998375e-09	0.05573847	0.9981524	-0.018743033
2.7004273052170318e-09	0.03618925	0.99903727	-0.01958011
2.8000499476231636e-09	0.01584361	0.99954987	-0.020466346
2.900287344368925e-09	-0.0055792937	0.9996401	-0.021410532
3.00048199709513e-09	-0.02798841	0.99924123	-0.02240386
3.1000934576192583e-09	-0.051286925	0.9982914	-0.023435473
3.2002866348056902e-09	-0.075770214	0.9967038	-0.024509963
3.300525034780145e-09	-0.10132601	0.9943994	-0.025611555
3.400149529552035e-09	-0.12776856	0.991315	-0.026719365
3.500300455359596e-09	-0.1553689	0.9873291	-0.02782917
3.600553733271829e-09	-0.18396409	0.9823645	-0.028915888
3.7002074519430907e-09	-0.21326347	0.9763834	-0.029948825
3.800345983860189e-09	-0.24347043	0.96925277	-0.030913498
3.900002238180007e-09	-0.27414984	0.96098727	-0.031773597
4.000258207474572e-09	-0.30546206	0.9514612	-0.032511167
4.100425043376548e-09	-0.33699608	0.940722	-0.03309486
4.200061171058973e-09	-0.3683943	0.92884845	-0.033502124
4.300284688269268e-09	-0.39978075	0.915757	-0.03372141
4.40051303842845e-09	-0.43074164	0.9015945	-0.033740677
4.500140147252442e-09	-0.4608747	0.88656396	-0.03356033
4.6003160494965296e-09	-0.49032745	0.87062323	-0.033185028
4.700570163236517e-09	-0.5187783	0.8539864	-0.032628648
4.800237665079304e-09	-0.545905	0.8369236	-0.031916037
4.9003864239093164e-09	-0.57189286	0.8194094	-0.031064097
5.000046367767501e-09	-0.59641945	0.80176294	-0.030107656
5.100303320470666e-09	-0.6197125	0.78393185	-0.029063672
5.200518308970494e-09	-0.6416046	0.76615393	-0.027964879
5.300154552176839e-09	-0.6620101	0.74863064	-0.026842201
5.4003601556040306e-09	-0.6812035	0.7312482	-0.025704468
5.500067347756244e-09	-0.6990331	0.7142619	-0.02458216
5.6002461085826585e-09	-0.7157389	0.697559	-0.023479378
5.700453884735944e-09	-0.73131067	0.6812532	-0.022412911
5.800139039325496e-09	-0.74574697	0.66545475	-0.021396983
5.900376331459798e-09	-0.7592797	0.6500055	-0.020426651
6.000023543316e-09	-0.77183056	0.6350838	-0.019516682
6.100190630805206e-09	-0.783613	0.62051785	-0.018658787
6.200461850547727e-09	-0.7946399	0.60636145	-0.01785754
6.300128602357096e-09	-0.8049038	0.5926961	-0.01711758
6.400293794675119e-09	-0.81457996	0.57935125	-0.016429212
6.500511478223297e-09	-0.823676	0.56636876	-0.015793994
6.600200960885126e-09	-0.8321943	0.553799	-0.015212929
6.700410445841689e-09	-0.84027165	0.54148644	-0.014677403
6.8000551910740155e-09	-0.8478632	0.5295409	-0.014190594
6.900257416242546e-09	-0.8550932	0.517804	-0.013744431
7.000510587605393e-09	-0.8619572	0.5063141	-0.013339062
7.100169274469929e-09	-0.8684454	0.49511996	-0.012974377
7.200328297262539e-09	-0.8746589	0.4840756	-0.0126440795
7.300573663135627e-09	-0.8805954	0.4732062	-0.01234776
7.400252127140136e-09	-0.8862421	0.46255955	-0.012085212
7.500407756896949e-09	-0.89167994	0.4520029	-0.011851923
7.600053280438302e-09	-0.8968747	0.44161958	-0.011648639
7.700295088457447e-09	-0.9019016	0.43127412	-0.0114717875
7.800510665694133e-09	-0.9067437	0.4210116	-0.0113215
7.900145514797844e-09	-0.9113903	0.41086856	-0.011197348
8.000338447029004e-09	-0.91590786	0.40070948	-0.011097048
8.100023541957566e-09	-0.92025965	0.39062342	-0.011020992
8.200238901939177e-09	-0.924502	0.38048595	-0.010967836
8.300393667974804e-09	-0.92861825	0.37033755	-0.010937669
8.400057753649725e-09	-0.9326005	0.3602025	-0.010930171
8.500311969469965e-09	-0.9364994	0.34995106	-0.010945191
8.600463445395741e-09	-0.9402939	0.33963352	-0.010982818
8.700112960585472e-09	-0.9439758	0.3292712	-0.011042869
8.800367886748248e-09	-0.9475908	0.31872758	-0.011126367
8.900021697975615e-09	-0.9510996	0.30810773	-0.011232762
9.000168869817953e-09	-0.9545442	0.2972726	-0.011363782
9.100398154305496e-09	-0.9579121	0.2862414	-0.011519855
9.200080451813032e-09	-0.96118414	0.27506012	-0.011700725
9.300239472520045e-09	-0.96439457	0.26358798	-0.011909268
9.400425967556203e-09	-0.967528	0.25184724	-0.012145968
9.500112858057708e-09	-0.9705666	0.2398727	-0.01241075
9.600305693476698e-09	-0.97353804	0.22751284	-0.012707817
9.700453952159728e-09	-0.97642076	0.21480098	-0.013037446
9.800128031758822e-09	-0.9791975	0.20176014	-0.013399802
9.900366349588515e-09	-0.9818886	0.18821755	-0.0138007
1.0000501621265159e-08	-0.9844654	0.17422168	-0.014239857
1.0100151105067182e-08	-0.986907	0.15978956	-0.014717465
1.0200403996545793e-08	-0.98922455	0.14471944	-0.015241148
1.030005278518864e-08	-0.9913718	0.12914789	-0.015806902
1.0400188103048451e-08	-0.9933508	0.112858295	-0.016423125
1.0500425766050069e-08	-0.99512655	0.09585816	-0.017090037
1.0600094376886677e-08	-0.99665797	0.07821594	-0.017804708
1.0700236254343413e-08	-0.99792624	0.05969696	-0.018576017
1.0800428813042668e-08	-0.9988823	0.040321775	-0.019401971
1.0900110716465102e-08	-0.9994761	0.020155061	-0.02027757
1.1000289896020287e-08	-0.99965936	-0.0010541314	-0.02121046
1.110043964608674e-08	-0.99936783	-0.023243465	-0.022193402
1.1200112861680402e-08	-0.9985388	-0.04634161	-0.023217019
1.1300339337285705e-08	-0.99708843	-0.070613846	-0.024284987
1.1400470379221865e-08	-0.994942	-0.09592242	-0.025380928
1.1500120097548262e-08	-0.9920295	-0.12215594	-0.026487628
1.1600373372500193e-08	-0.9882309	-0.14957638	-0.02760097
1.1700016374548386e-08	-0.9835068	-0.17780212	-0.028688023
1.1800156667823222e-08	-0.9777244	-0.20706764	-0.029738134
1.19003918629167e-08	-0.9708254	-0.23715553	-0.030721253
1.2000065191435786e-08	-0.9628046	-0.26772547	-0.031604502
1.2100216495105808e-08	-0.9535416	-0.2989278	-0.03236999
1.2200414298897087e-08	-0.9430521	-0.33043745	-0.032987602
1.2300106784307621e-08	-0.9314165	-0.36186558	-0.03343264
1.2400297901123582e-08	-0.91856176	-0.3933018	-0.033692323
1.2500466971610248e-08	-0.9046217	-0.42435163	-0.03375338
1.260015763993126e-08	-0.88977015	-0.45465493	-0.033614106
1.2700388221359811e-08	-0.873981	-0.48431474	-0.033277884
1.2800025165708876e-08	-0.85757655	-0.512817	-0.03276105
1.2900193079936359e-08	-0.8405263	-0.54033506	-0.032076687
1.3000452516892948e-08	-0.82305706	-0.5666227	-0.031249875
1.3100132798271984e-08	-0.8054407	-0.59143484	-0.03031345
1.3200310490872633e-08	-0.78762966	-0.61499673	-0.029284958
1.3300513015579478e-08	-0.7698355	-0.6371735	-0.028195595
1.3400207565339107e-08	-0.7522628	-0.6578707	-0.027076632
1.350043360758472e-08	-0.734821	-0.6773392	-0.025938824
1.3600084508999991e-08	-0.7177757	-0.69541633	-0.024813777
1.3700267300279469e-08	-0.70099354	-0.7123678	-0.023704728
1.380052939203925e-08	-0.68459386	-0.72817737	-0.022629302
1.3900201314939264e-08	-0.66870916	-0.7428237	-0.021603644
1.4000361876022136e-08	-0.6531812	-0.75654364	-0.020623084
1.4100034350129943e-08	-0.6381655	-0.7692791	-0.019701328
1.420029051526407e-08	-0.6234978	-0.7812392	-0.018830828
1.4300509455427774e-08	-0.6092626	-0.79241335	-0.01801818
1.4400148097723623e-08	-0.5955186	-0.8028138	-0.017266843
1.4500349948322257e-08	-0.5820901	-0.8126215	-0.016566927
1.4600036632942317e-08	-0.56910145	-0.8217869	-0.01592414
1.4700261552281228e-08	-0.5563936	-0.8304588	-0.015329471
1.4800431574850391e-08	-0.5440212	-0.8386301	-0.014784314
1.4900114957145544e-08	-0.5320114	-0.8463127	-0.014288063
1.500035963095727e-08	-0.52021456	-0.85362655	-0.013832962
1.5100008267857837e-08	-0.5087434	-0.86052334	-0.013421729
1.5200174691695694e-08	-0.49744612	-0.8671131	-0.013047308
1.5300413065245506e-08	-0.48635215	-0.8733932	-0.012709422
1.5400099796784915e-08	-0.47550684	-0.8793535	-0.012407806
1.5500276940756135e-08	-0.4647748	-0.8850807	-0.012137331
1.5600451719896024e-08	-0.4541886	-0.8905671	-0.011897804
1.5700131617608327e-08	-0.4437786	-0.8958069	-0.011688611
1.5800363202106497e-08	-0.43341503	-0.90087336	-0.011506168
1.5900003595873584e-08	-0.42319638	-0.9057248	-0.0113513265
1.6000177700467072e-08	-0.41298732	-0.9104311	-0.0112212505
1.6100434289541704e-08	-0.40281492	-0.9149828	-0.011115873
1.6200097425459303e-08	-0.39272812	-0.9193624	-0.011034973
1.6300247238553588e-08	-0.3825984	-0.9236288	-0.010977065
1.64004786854295e-08	-0.3724473	-0.9277732	-0.010942152
1.650016147669261e-08	-0.3623194	-0.9317792	-0.010930011
1.6600345200946937e-08	-0.35208848	-0.9356971	-0.01094036
1.6700516454155207e-08	-0.34178632	-0.93951285	-0.01097331
1.6800193306262672e-08	-0.33144277	-0.9432148	-0.011028668
1.690042106824388e-08	-0.32092825	-0.94684714	-0.011107333
1.700006056893768e-08	-0.31034058	-0.9503728	-0.011208815
1.710022784889513e-08	-0.2995388	-0.9538349	-0.011334804
1.7200479571202133e-08	-0.28854576	-0.95721996	-0.0114856865
1.730013400759155e-08	-0.2774131	-0.9605073	-0.011661105
1.7400287107855202e-08	-0.26599294	-0.96373385	-0.011863982
1.750051944331278e-08	-0.2543039	-0.966885	-0.012094867
1.760020058650343e-08	-0.24239287	-0.9699402	-0.012353453
1.7700359977129116e-08	-0.23010692	-0.97292817	-0.012643869
1.7800545770934378e-08	-0.2174669	-0.97583073	-0.0129667055
1.7900230031357714e-08	-0.20450814	-0.9786275	-0.013321829
1.8000428646830344e-08	-0.1910625	-0.9813393	-0.013714829
1.8100047045536013e-08	-0.17723945	-0.98392737	-0.014143461
1.820024699015262e-08	-0.1628374	-0.98640954	-0.01461494
1.830048751239064e-08	-0.14788675	-0.988757	-0.015129402
1.8400114755723758e-08	-0.1324451	-0.99093807	-0.015685443
1.8500261068263772e-08	-0.11629088	-0.99295646	-0.016291615
1.8600509455858056e-08	-0.099436544	-0.9947773	-0.01694805
1.870016388371983e-08	-0.08195414	-0.99635994	-0.017651767
1.8800295823468793e-08	-0.06360581	-0.99768734	-0.018411823
1.890051549405234e-08	-0.044404905	-0.99871224	-0.019226702
1.900019204315709e-08	-0.024427896	-0.9993843	-0.020091098
1.9100346361581196e-08	-0.0034231537	-0.9996584	-0.021012893
1.9200517749247433e-08	0.018563353	-0.99947053	-0.021985877
1.9300197878664603e-08	0.041450005	-0.9987591	-0.023000589
1.9400399933933025e-08	0.06549766	-0.99744356	-0.024060916
1.9500010925877394e-08	0.09045322	-0.99546087	-0.025146019
1.9600202695571566e-08	0.11660926	-0.99270403	-0.02625652
1.9700444480519555e-08	0.1438162	-0.9890932	-0.027371198
1.980007093481253e-08	0.17184046	-0.9845737	-0.028463846
1.9900221529971707e-08	0.20092961	-0.97901237	-0.029524852
2.0000474955007737e-08	0.23086843	-0.97234786	-0.030524388
2.0100131187872057e-08	0.26131052	-0.9645735	-0.03142931
2.0200278747512493e-08	0.29242563	-0.95556307	-0.032222323
2.0300507532655765e-08	0.32390118	-0.9453236	-0.032872856
2.040018693907692e-08	0.35532716	-0.93393576	-0.03335465
2.050036468163107e-08	0.38680893	-0.9213189	-0.03365443
2.060053772392974e-08	0.41795737	-0.9075963	-0.03375723
2.0700223168829848e-08	0.44840088	-0.892939	-0.033659454
2.0800452737660678e-08	0.47824413	-0.8773168	-0.033363312
2.090007799199406e-08	0.5069607	-0.86104906	-0.032883245
2.1000271836558538e-08	0.53473294	-0.8440973	-0.032231268
2.110052404008356e-08	0.5612868	-0.82670003	-0.03143186
2.1200177606609754e-08	0.5863724	-0.8091275	-0.030517286
2.130035966680844e-08	0.61022365	-0.7913264	-0.029504735
2.1400031732571198e-08	0.6325739	-0.77361166	-0.02843168
2.150027497499898e-08	0.6536726	-0.75590575	-0.027312076
2.1600455301215306e-08	0.6734072	-0.73841804	-0.026175791
2.1700110163605434e-08	0.69174707	-0.72130466	-0.025047993
2.1800362175525674e-08	0.7089592	-0.70443285	-0.023932466
2.190004143279405e-08	0.7249121	-0.68804276	-0.022855213
2.2000226395487417e-08	0.73985445	-0.67198557	-0.02181442
2.210042416219323e-08	0.75378126	-0.65636015	-0.020822605
2.2200114174280847e-08	0.7667038	-0.64125067	-0.019889185
2.2300343991272528e-08	0.7788316	-0.6264963	-0.019007005
2.2400508362896035e-08	0.7901564	-0.6121809	-0.018182818
2.250017574427884e-08	0.80070245	-0.59834874	-0.017419506
2.260043906880907e-08	0.81064713	-0.5848315	-0.016707672
2.270011324320753e-08	0.8199299	-0.57176894	-0.016053993
2.2800297127375363e-08	0.8287069	-0.55899495	-0.015449005
2.2900501177701802e-08	0.83698016	-0.5465518	-0.014893629
2.3000189373393396e-08	0.84475297	-0.53448033	-0.014387918
2.3100415197160277e-08	0.85214806	-0.5226291	-0.01392396
2.3200059719707737e-08	0.85911924	-0.511107	-0.013504356
2.3300240910012968e-08	0.8657788	-0.4997612	-0.013121946
2.3400504818006425e-08	0.87212336	-0.48862228	-0.0127765
2.350015819713331e-08	0.87813866	-0.4777434	-0.012467982
2.3600306137244078e-08	0.88391685	-0.4669814	-0.012190929
2.3700546146088433e-08	0.88945484	-0.45635977	-0.011944947
2.3800221504125048e-08	0.8947384	-0.4459262	-0.0117298085
2.3900396991804304e-08	0.89984244	-0.43554848	-0.011541759
2.400003463002327e-08	0.904731	-0.42531428	-0.0113814715
2.410027630706161e-08	0.90947473	-0.41508645	-0.011246046
2.4200480904407997e-08	0.9140557	-0.40491158	-0.011135635
2.4300108481587184e-08	0.91846293	-0.3948248	-0.011049846
2.4400317341462488e-08	0.9227589	-0.3846894	-0.010987067
2.4500008813318154e-08	0.9269062	-0.37459737	-0.01094755
2.460017598623159e-08	0.9309555	-0.36442876	-0.0109305745
2.4700370171110954e-08	0.9348955	-0.3542093	-0.010936221
2.4800052153207002e-08	0.93871325	-0.3439744	-0.010964263
2.4900254386437176e-08	0.94245416	-0.33359766	-0.011015115
2.5000418124376617e-08	0.9461025	-0.32311532	-0.0110889105
2.510010331874379e-08	0.94964707	-0.3125528	-0.011185547
2.5200326751854464e-08	0.95312786	-0.3017799	-0.011306564
2.5300481161987156e-08	0.9565258	-0.29083738	-0.011452094
2.540014532667663e-08	0.95982933	-0.2797486	-0.011622152
2.550039253686059e-08	0.96307486	-0.2683682	-0.011819594
2.5600038481143602e-08	0.9662237	-0.2568042	-0.012043217
2.5700189966112362e-08	0.96931	-0.24490023	-0.012296771
2.5800439183892402e-08	0.9723179	-0.23267213	-0.012580946
2.5900103753252378e-08	0.9752237	-0.22017393	-0.012895212
2.6000243463468026e-08	0.978053	-0.20723984	-0.013244641
2.6100459455785497e-08	0.9807865	-0.1938825	-0.013630047
2.6200140306939615e-08	0.9833994	-0.18014877	-0.014050904
2.630031070828414e-08	0.98590696	-0.16585794	-0.014513692
2.6400477873802528e-08	0.9882822	-0.15103449	-0.015018729
2.6500155169241443e-08	0.9904974	-0.13571027	-0.0155655565
2.6600373131210376e-08	0.99255526	-0.11967985	-0.01616219
2.6700507462405484e-08	0.9944175	-0.10299037	-0.016807456
2.6800162534616502e-08	0.99605006	-0.085663676	-0.017500408
2.690041346953342e-08	0.9974367	-0.06746049	-0.018250272
2.7000047913661246e-08	0.9985226	-0.048550166	-0.019049099
2.7100183881155828e-08	0.9992752	-0.028671343	-0.019906145
2.720042850619616e-08	0.9996374	-0.007845297	-0.020817872
2.7300088931927074e-08	0.9995521	0.01382195	-0.021775592
2.7400222680631676e-08	0.99895394	0.03659735	-0.022785604
2.750042782688098e-08	0.9977695	0.060427725	-0.023838293
2.7600108887572312e-08	0.9959322	0.085182466	-0.02491866
2.7700275923323582e-08	0.99334097	0.11111458	-0.02602614
2.7800437358637166e-08	0.9899168	0.13808791	-0.027140671
2.79001170411144e-08	0.9855954	0.16592757	-0.028238822
2.800033259646125e-08	0.9802481	0.1948528	-0.029310267
2.8100470766390796e-08	0.97382355	0.22459789	-0.030323785
2.8200129975628817e-08	0.9662922	0.25491172	-0.031249443
2.830037931343143e-08	0.9575238	0.28596467	-0.032069664
2.8400021535051595e-08	0.9475988	0.31720337	-0.032748234
2.850017155491878e-08	0.9364098	0.34877023	-0.033268914
2.860042233943037e-08	0.9240228	0.38031512	-0.033608433
2.8700091600223433e-08	0.91059244	0.41139516	-0.03375233
2.8800249611247238e-08	0.8960678	0.44211778	-0.033696238
2.8900462965965276e-08	0.88062084	0.47213155	-0.03344048
2.90001546348575e-08	0.86448383	0.50107753	-0.03299732
2.910035966192002e-08	0.84764004	0.52909344	-0.032378517
2.920000374772358e-08	0.8304262	0.55575144	-0.031612426
2.9300247365836356e-08	0.8127966	0.5812675	-0.03071547
2.9400467111618136e-08	0.7950059	0.60541326	-0.029719507
2.9500117270652663e-08	0.7772864	0.62804383	-0.02865808
2.9600325679532395e-08	0.75955576	0.6494187	-0.027545203
2.9700022572354527e-08	0.74210274	0.6693355	-0.026416231
2.9800230237310676e-08	0.72482985	0.6880441	-0.025280178
2.990042376376639e-08	0.7078932	0.7054963	-0.024160193
3.0000108894957865e-08	0.69141996	0.7216844	-0.023075372
3.010035720154748e-08	0.6752652	0.7368557	-0.022024592
3.0200002721241024e-08	0.6596354	0.75091046	-0.021027615
3.030018943420768e-08	0.644359	0.7640878	-0.02007806
3.040045441973682e-08	0.62951005	0.77639276	-0.019183809
3.050011567684251e-08	0.6151787	0.78782	-0.018351857
3.060030455540897e-08	0.60118914	0.79856795	-0.017572703
3.070053882607896e-08	0.5875956	0.808642	-0.016849656
3.080022549707922e-08	0.5744558	0.8180462	-0.01618493
3.090044613470616e-08	0.5616058	0.8269367	-0.0155691905
3.100011390561141e-08	0.5491624	0.8352667	-0.015006715
3.110030061055461e-08	0.53696793	0.84317124	-0.014488886
3.120054280543865e-08	0.52505803	0.85065114	-0.014015898
3.1300221437910386e-08	0.5134803	0.8577007	-0.013587776
3.140039119845122e-08	0.50208867	0.8644291	-0.013197486
3.150004812664956e-08	0.49097434	0.8707994	-0.012846598
3.160030557948919e-08	0.47999087	0.8769104	-0.012529063
3.1700497950667364e-08	0.4691907	0.8827445	-0.012245251
3.180013411492735e-08	0.45860377	0.8882984	-0.011994416
3.19003601783791e-08	0.44808728	0.89365673	-0.011772035
3.200004329055306e-08	0.4377397	0.8987773	-0.011579176
3.210022140090854e-08	0.4274332	0.9037306	-0.011412522
3.220040338190766e-08	0.41719905	0.9085064	-0.011271942
3.230009859383059e-08	0.40706736	0.91309655	-0.011156994
3.2400302909274896e-08	0.3969175	0.91755944	-0.011065741
3.250045789885874e-08	0.3867869	0.9218806	-0.0109982
3.260012701988536e-08	0.37670055	0.92605245	-0.010953986
3.270038400954515e-08	0.36653027	0.9301292	-0.010932331
3.2800030756236527e-08	0.35637814	0.93407	-0.01093328
3.290018744774318e-08	0.34611028	0.93792707	-0.010956755
3.3000429472295737e-08	0.3357493	0.9416892	-0.011002934
3.310009803850504e-08	0.3253432	0.94533795	-0.011071582
3.3200262407550144e-08	0.31475893	0.94891757	-0.011163781
3.3300455531405154e-08	0.30402264	0.95241433	-0.011279793
3.340014034834179e-08	0.29317003	0.95581293	-0.011419473
3.350034759668087e-08	0.28206462	0.9591509	-0.011585088
3.360051426724925e-08	0.27074212	0.96240985	-0.011776839
3.3700187901662014e-08	0.25922912	0.9655758	-0.011994767
3.38004252926419e-08	0.24737522	0.9686812	-0.012242481
3.3900051217689485e-08	0.23529026	0.9716877	-0.012518475
3.400021738718155e-08	0.22280355	0.9746264	-0.012827498
3.41004726945233e-08	0.209935	0.9774782	-0.013170211
3.420011596091004e-08	0.19674245	0.9802173	-0.01354585
3.430025479108117e-08	0.18304282	0.98286533	-0.0139605645
3.440048774091526e-08	0.16884759	0.9854001	-0.0144152045
3.450015911255219e-08	0.1542115	0.9877924	-0.014908773
3.460031675184723e-08	0.1389374	0.9900511	-0.015448737
3.470049166319832e-08	0.12304642	0.99214494	-0.01603523
3.480017301634951e-08	0.10657617	0.99404144	-0.016667172
3.490037856396866e-08	0.089308456	0.99573195	-0.017353108
3.5000516041009366e-08	0.071289495	0.99717295	-0.01809109
3.5100179456802e-08	0.052547432	0.9983231	-0.018878967
3.520042144148538e-08	0.03283211	0.99915045	-0.019725695
3.5300047258958595e-08	0.012330238	0.99959624	-0.020620737
3.540019120531386e-08	-0.0092359185	0.99960935	-0.021572499
3.55004424622089e-08	-0.03182713	0.99912244	-0.022574171
3.56000930401373e-08	-0.055308323	0.99807215	-0.023612902
3.570022407574323e-08	-0.07995323	0.9963719	-0.02469195
3.5800448533565476e-08	-0.10568192	0.99394053	-0.025796587
3.5900124295020375e-08	-0.13231027	0.9907131	-0.026905578
3.600027810088569e-08	-0.16007729	0.98657036	-0.028012881
3.610046380270355e-08	-0.18880683	0.98143864	-0.029092621
3.6200145203450256e-08	-0.21825023	0.97527426	-0.030115504
3.6300350063227456e-08	-0.24859217	0.9679453	-0.031065892
3.640049941038713e-08	-0.2795125	0.95943487	-0.03191042
3.650016185513189e-08	-0.31069607	0.9497593	-0.03261953
3.6600413502921875e-08	-0.3422776	0.93880826	-0.033175904
3.6700057395336785e-08	-0.37366137	0.92673814	-0.03355241
3.6800214229417994e-08	-0.40497166	0.9134704	-0.03373863
3.690046024904702e-08	-0.4358449	0.89913714	-0.033724234
3.700013397236908e-08	-0.46586436	0.88395214	-0.03351082
3.710028432800213e-08	-0.49515	0.8678907	-0.033104297
3.720049134734334e-08	-0.5234019	0.851163	-0.03251985
3.730018360310303e-08	-0.5503305	0.83402383	-0.031782694
3.740038474029768e-08	-0.5761113	0.8164536	-0.030910105
3.750003188981798e-08	-0.6004065	0.79878694	-0.029938256
3.760023816806359e-08	-0.6234555	0.7809641	-0.02888376
3.770047963453395e-08	-0.6451227	0.76320016	-0.027777964
3.780012925659625e-08	-0.66530657	0.74570894	-0.026652273
3.790032932879071e-08	-0.68428135	0.7283752	-0.02551505
3.80000273834647e-08	-0.70190334	0.71144783	-0.024396036
3.810023888641397e-08	-0.71841925	0.6948044	-0.023298275
3.820043646586242e-08	-0.7338065	0.67857015	-0.02223896
3.830013231257751e-08	-0.7480751	0.66284215	-0.021231111
3.840035575598927e-08	-0.76144874	0.6474687	-0.02026992
3.850001962365182e-08	-0.7738576	0.63261735	-0.019369185
3.860019373214639e-08	-0.78550786	0.61812234	-0.018520843
3.8700436297120876e-08	-0.79640985	0.6040395	-0.017729413
3.880012208974153e-08	-0.8065653	0.59043753	-0.016998649
3.890030415019225e-08	-0.8161414	0.57715374	-0.01631926
3.9000501772815665e-08	-0.82514286	0.5642334	-0.015692893
3.910018782545702e-08	-0.833577	0.55171955	-0.015120131
3.920044111999251e-08	-0.8415805	0.5394536	-0.014592257
3.930008701995284e-08	-0.849102	0.5275556	-0.014112872
3.940025768658746e-08	-0.85626554	0.5158663	-0.013673884
3.9500510911214195e-08	-0.8630708	0.50441635	-0.013275129
3.960017874367612e-08	-0.8695065	0.49325705	-0.0129166115
3.970034097964668e-08	-0.8756711	0.48224473	-0.012592172
3.980057217832281e-08	-0.88156205	0.4714056	-0.012301434
3.9900259504346955e-08	-0.8871683	0.460783	-0.01204407
4.000043123778204e-08	-0.89256936	0.45024624	-0.011815711
4.01000621000022e-08	-0.8977291	0.43988246	-0.011617159
4.020030140277409e-08	-0.9027241	0.42955214	-0.011444827
4.030052327318911e-08	-0.9075373	0.41930047	-0.011298853
4.04001539809224e-08	-0.91215694	0.40916595	-0.01117887
4.0500357486360644e-08	-0.91665	0.39901075	-0.011082614
4.060004934610638e-08	-0.9209793	0.38892573	-0.011010474
4.0700243874470186e-08	-0.9251994	0.3787889	-0.010961199
4.080040658036458e-08	-0.92929614	0.36863488	-0.010934844
4.0900074734616825e-08	-0.93326026	0.35849142	-0.0109311165
4.100032001597207e-08	-0.9371414	0.34822947	-0.010949915
4.110046940505172e-08	-0.9409199	0.3378973	-0.01099134
4.1200118068442396e-08	-0.9445866	0.3275168	-0.0110552125
4.130037035335841e-08	-0.9481869	0.31695145	-0.011142618
4.140002667200462e-08	-0.9516819	0.30630577	-0.011252999
4.150016743473216e-08	-0.95511276	0.2954417	-0.011388121
4.160038507127921e-08	-0.9584671	0.2843781	-0.011548431
4.1700067233246875e-08	-0.96172637	0.27315903	-0.011733691
4.1800234473571964e-08	-0.9649242	0.2616435	-0.011946866
4.190040958360548e-08	-0.9680441	0.2498568	-0.012188371
4.20000903496153e-08	-0.971069	0.23783104	-0.012458184
4.2100309905816884e-08	-0.97402686	0.22541042	-0.012760678
4.220044754098272e-08	-0.97689426	0.21263675	-0.013095921
4.230011256294758e-08	-0.9796543	0.19952841	-0.01346418
4.2400360446067784e-08	-0.9823278	0.18590906	-0.013871437
4.250050420312423e-08	-0.9848852	0.1718299	-0.014317311
4.260014409701584e-08	-0.9873045	0.15731046	-0.014801914
4.270039122085396e-08	-0.98959696	0.14214456	-0.015333024
4.280004947146019e-08	-0.9917162	0.12646772	-0.015906638
4.2900188332365975e-08	-0.99366283	0.11006503	-0.016531104
4.300040552144623e-08	-0.995401	0.092947446	-0.017206449
4.310008300064634e-08	-0.99689007	0.07517493	-0.01792998
4.320024262584441e-08	-0.9981092	0.056514572	-0.01871046
4.330040891161613e-08	-0.9990083	0.036997914	-0.019545302
4.3400088520561885e-08	-0.999537	0.016677838	-0.020429816
4.350029476546999e-08	-0.9996454	-0.0046993503	-0.021371622
4.36004284853127e-08	-0.99926794	-0.027053839	-0.022362424
4.370008829918037e-08	-0.99834156	-0.05032166	-0.023392893
4.3800333853362334e-08	-0.9967801	-0.07477538	-0.024466673
4.39004687970617e-08	-0.9945086	-0.10026221	-0.025566343
4.40001076270709e-08	-0.9914578	-0.12666652	-0.026674127
4.410035901713204e-08	-0.9875053	-0.15425456	-0.027785618
4.420001382231134e-08	-0.98261327	-0.18263987	-0.028867388
4.4300154146329424e-08	-0.97665006	-0.21204658	-0.029907977
4.440037817351921e-08	-0.9695598	-0.2422512	-0.03087699
4.450005573742165e-08	-0.96134007	-0.27291593	-0.03174179
4.460021773036995e-08	-0.95187175	-0.30418473	-0.03248431
4.4700416576706747e-08	-0.9411782	-0.3357231	-0.033074804
4.4800097453472454e-08	-0.92934644	-0.36713862	-0.033489525
4.4900313288491675e-08	-0.9163004	-0.39853507	-0.033716567
4.500045999117381e-08	-0.90219057	-0.4294923	-0.03374389
4.510012886799116e-08	-0.8871902	-0.45966816	-0.033571403
4.520038607744756e-08	-0.87126696	-0.48918208	-0.03320325
4.530002838800634e-08	-0.8547575	-0.51750576	-0.03265743
4.540018675209697e-08	-0.8376306	-0.54481834	-0.03194769
4.550043296677416e-08	-0.82011145	-0.5708841	-0.031099815
4.560010948033368e-08	-0.8024684	-0.5954684	-0.030146945
4.5700278471285375e-08	-0.78465396	-0.61879617	-0.029106572
4.580051817456004e-08	-0.766868	-0.64074916	-0.028009206
4.5900204219628284e-08	-0.74932843	-0.66121835	-0.026886713
4.6000417061088015e-08	-0.73193425	-0.6804645	-0.025748868
4.6100067025870346e-08	-0.7149447	-0.69833314	-0.024626503
4.620026319987276e-08	-0.69822395	-0.71508867	-0.023522295
4.63005260062932e-08	-0.6818933	-0.7307126	-0.022453614
4.6400181011621424e-08	-0.66608316	-0.7451846	-0.021436114
4.6500355208850224e-08	-0.65062636	-0.7587466	-0.02046429
4.6600035845068064e-08	-0.63568264	-0.7713364	-0.019551793
4.670029864697199e-08	-0.62108624	-0.7831617	-0.018690843
4.68004727175525e-08	-0.6069274	-0.79420686	-0.017888144
4.690012464473894e-08	-0.59324837	-0.8044961	-0.017146084
4.7000374035920143e-08	-0.5798774	-0.8142049	-0.016454998
4.710005452646568e-08	-0.56694984	-0.82327545	-0.015821034
4.720022934321502e-08	-0.5543049	-0.8318569	-0.015235064
4.7300443328987013e-08	-0.5419796	-0.83995324	-0.014697653
4.7400140541470244e-08	-0.5300166	-0.84756535	-0.014208848
4.750035308514053e-08	-0.51826835	-0.8548114	-0.013761008
4.760052872842129e-08	-0.50677794	-0.861684	-0.013354401
4.770021915279648e-08	-0.4955717	-0.8681873	-0.012988138
4.780045087700676e-08	-0.48451176	-0.87441695	-0.012656237
4.7900077768187686e-08	-0.4737022	-0.88032836	-0.012360371
4.8000265556065584e-08	-0.46299475	-0.8860146	-0.012095163
4.8100517673019925e-08	-0.4524228	-0.89146674	-0.011860489
4.820017525858379e-08	-0.44203386	-0.89667034	-0.011656101
4.830032671368259e-08	-0.43169412	-0.9017004	-0.011478359
4.840057515356186e-08	-0.4214254	-0.90655124	-0.011327004
4.850025349558517e-08	-0.41127586	-0.9112064	-0.0112018315
4.860039536958971e-08	-0.40112072	-0.9157276	-0.011100643
4.8700045153436025e-08	-0.3910377	-0.9200835	-0.011023687
4.8800302813618904e-08	-0.38089615	-0.9243328	-0.010969604
4.8900483444058954e-08	-0.37074608	-0.928455	-0.010938545
4.9000110267933214e-08	-0.3606166	-0.9324403	-0.010930171
4.910033496249879e-08	-0.35037065	-0.93634236	-0.010944297
4.92000160309216e-08	-0.34010512	-0.9401234	-0.010980798
4.9300187567144087e-08	-0.3296928	-0.9438286	-0.011040211
4.9400375159008575e-08	-0.31916124	-0.94744474	-0.011122731
4.9500055477767816e-08	-0.30854446	-0.9509579	-0.011228209
4.960027368629216e-08	-0.2977084	-0.9544083	-0.011358356
4.9700418025525804e-08	-0.28669438	-0.9577764	-0.011513297
4.980009152429923e-08	-0.27552277	-0.96105146	-0.011693104
4.990033611580629e-08	-0.26405063	-0.9642679	-0.011900742
5.0000481461711216e-08	-0.25232553	-0.9674033	-0.012136216
5.010012839040429e-08	-0.24036781	-0.970444	-0.012399694
5.0200381672396034e-08	-0.22801396	-0.97342074	-0.012695676
5.030003023568139e-08	-0.21538098	-0.9762932	-0.013022249
5.04001698651803e-08	-0.2022963	-0.9790869	-0.013384792
5.0500411154745386e-08	-0.18877095	-0.9817823	-0.013784198
5.060008170992814e-08	-0.17486028	-0.9843524	-0.014219639
5.0700221599036376e-08	-0.16037919	-0.9868115	-0.014697829
5.0800428195842656e-08	-0.14533871	-0.989134	-0.015219483
5.090010959888694e-08	-0.12978652	-0.99128866	-0.01578355
5.100028212412859e-08	-0.113517165	-0.993276	-0.016398039
5.110044113809008e-08	-0.096558794	-0.99505913	-0.017062377
5.120011823381699e-08	-0.0789457	-0.9966009	-0.01777498
5.13003385924213e-08	-0.060444724	-0.9978817	-0.018544715
5.140047106427823e-08	-0.04111566	-0.9988505	-0.019367984
5.150012599884722e-08	-0.02099109	-0.99945945	-0.020241158
5.160037516842557e-08	0.00019435014	-0.9996608	-0.02117258
5.170000745582815e-08	0.02222682	-0.9993919	-0.022148352
5.1800142975681125e-08	0.045388054	-0.9985836	-0.023174848
5.190038771824946e-08	0.06962225	-0.99715936	-0.02424157
5.200004797818387e-08	0.09476698	-0.99505424	-0.025331328
5.21001852221172e-08	0.12108441	-0.99216235	-0.026443005