# t (s)	mx ()	my ()	mz ()
0	0.94881475	0.29962572	0.099875234
5.3995479734335966e-12	0.94806635	0.30003238	0.10377474
1.0444752303447812e-11	0.94734395	0.30083293	0.10764857
1.5343273017904264e-11	0.9466737	0.30155295	0.111390255
2.0220226090852905e-11	0.94604284	0.30213642	0.11509769
2.5166519899292605e-11	0.9454344	0.30258632	0.11885496
3.003489622081749e-11	0.94486696	0.302886	0.12254168
3.5465674537146906e-11	0.944273	0.30305058	0.1266269
4.0409177213873644e-11	0.94376963	0.30304572	0.13031325
4.529753141383908e-11	0.943308	0.30289692	0.13392515
5.0176118006602416e-11	0.9428837	0.30260596	0.13749528
5.5125637934460597e-11	0.94249153	0.3021647	0.14108069
6.055851168716562e-11	0.9421064	0.30151	0.14497189
6.541695091643177e-11	0.941803	0.30077258	0.14841051
7.037275394216212e-11	0.94153404	0.29987162	0.15187609
7.524343564131539e-11	0.9413101	0.29883915	0.15523906
8.01302003064567e-11	0.94112647	0.29765612	0.15856835
8.508069527752406e-11	0.94098246	0.29630673	0.16189349
9.050428165853227e-11	0.9408739	0.29465327	0.16547926
9.537005095332896e-11	0.9408206	0.29301342	0.16864346
1.0032667233087988e-10	0.9408094	0.29119033	0.17181359
1.0519042250181924e-10	0.9408409	0.28925115	0.17487048
1.1008802974333236e-10	0.9409153	0.28714755	0.17789298
1.1503313710183229e-10	0.9410335	0.2848695	0.18088642
1.204505550524601e-10	0.94121295	0.28219566	0.18409637
1.2532367275253267e-10	0.94141865	0.27963096	0.18691997
1.3028017489310047e-10	0.94167054	0.27686688	0.18972813
1.3513432248054544e-10	0.9419586	0.2740077	0.19241433
1.4004249282046942e-10	0.94229114	0.27096325	0.1950644
1.4552218525734938e-10	0.9427107	0.2673816	0.19794261
1.5039555560996623e-10	0.94312584	0.2640342	0.20042928
1.5527369336780462e-10	0.94358027	0.2605304	0.20284781
1.6023043461265766e-10	0.9440811	0.2568132	0.20523138
1.6507798421620341e-10	0.9446079	0.25302467	0.20748873
1.7051562640532744e-10	0.94524145	0.24859457	0.20993225
1.7547163739758803e-10	0.9458567	0.2443907	0.21207595
1.8034046978749065e-10	0.9464949	0.24010639	0.21410283
1.8522940867128055e-10	0.94716823	0.23565051	0.21605769
1.9018064223130597e-10	0.9478819	0.2309808	0.21795371
1.9502420493688558e-10	0.94860935	0.22625986	0.21972542
2.0046560527888102e-10	0.94945943	0.22077613	0.22161594
2.0542573461324383e-10	0.95026267	0.21561174	0.22324543
2.10283442640481e-10	0.95107365	0.2104011	0.22475298
2.1518518968351908e-10	0.9519144	0.20499024	0.22618404
2.2012985069905638e-10	0.9527833	0.19937678	0.22753438
2.2554576644742518e-10	0.9537565	0.19304998	0.22890405
2.3042127354086951e-10	0.9546496	0.18719566	0.2300376
2.353759624948255e-10	0.9555712	0.18109275	0.23109141
2.402280966793426e-10	0.9564851	0.17496696	0.23202601
2.451399872835092e-10	0.9574192	0.16861613	0.23287249
2.5007665320022085e-10	0.95836467	0.16208257	0.23362064
2.5548927156836005e-10	0.9594056	0.15474668	0.23432097
2.603757987733421e-10	0.9603466	0.14797015	0.23484378
2.653286758154969e-10	0.96129835	0.1409541	0.23526616
2.701716951454269e-10	0.96222436	0.1339514	0.2355731
2.7509615043219884e-10	0.9631586	0.12668815	0.2357761
2.800224201213331e-10	0.96408236	0.11927976	0.2358677
2.854332876337472e-10	0.9650812	0.11098047	0.23583809
2.903269622874579e-10	0.9659669	0.103330314	0.2356923
2.9527629945441e-10	0.9668423	0.09545595	0.23542848
3.001172775679762e-10	0.96767557	0.08762266	0.23505583
3.050523988191569e-10	0.9684985	0.079505615	0.2345579
3.1052613012451223e-10	0.9693759	0.07035052	0.23386459
3.153737475986147e-10	0.97011834	0.062111817	0.23312536
3.2028214676436637e-10	0.9708336	0.053647466	0.23225562
3.2522430628732654e-10	0.97151345	0.045003507	0.23125546
3.300614647258306e-10	0.9721363	0.036428303	0.23015442
3.35005966834751e-10	0.97272617	0.027548652	0.2289029
3.404747004595918e-10	0.9733194	0.017597416	0.22736892
3.4531652120603684e-10	0.97378933	0.008676807	0.22587833
3.5023551227742807e-10	0.97421014	-0.0004879254	0.22423553
3.551671551097979e-10	0.9745716	-0.009775294	0.22245756
3.6000823306768637e-10	0.9748645	-0.018984426	0.22058384
3.654680053139384e-10	0.9751173	-0.029474873	0.21831703
3.704190405826334e-10	0.97527236	-0.039078347	0.21611972
3.7526072562050657e-10	0.97535264	-0.04854806	0.21383986
3.801909608842486e-10	0.97535896	-0.058265544	0.21138458
3.851112501819001e-10	0.97528684	-0.0680332	0.20879908
3.905201940783797e-10	0.97511387	-0.07884487	0.20580053
3.954241748661549e-10	0.9748694	-0.08870806	0.20293999
4.003677065608948e-10	0.9745361	-0.09870329	0.19991955
4.052057599919775e-10	0.97412336	-0.10853048	0.19683039
4.101482522692688e-10	0.97361124	-0.11860982	0.19353843
4.1505596602259674e-10	0.9730104	-0.12865195	0.19013362
4.2046391843238e-10	0.9722394	-0.13974881	0.18622497
4.253798947762141e-10	0.9714378	-0.14985728	0.1825296
4.303146100645262e-10	0.9705354	-0.16001745	0.17868428
4.351530704898309e-10	0.9695541	-0.16998544	0.17478237
4.401047135550925e-10	0.96845025	-0.18018577	0.17065497
4.455661756956431e-10	0.9671146	-0.19142655	0.16594617
4.5040776253378103e-10	0.9658268	-0.20137517	0.16163564
4.553396914658059e-10	0.964414	-0.2114861	0.15711424
4.60257944119208e-10	0.9629038	-0.22153807	0.15247557
4.6510629239978674e-10	0.9613162	-0.23140962	0.14777732
4.700633393875554e-10	0.959592	-0.24145642	0.14284651
4.755146458711812e-10	0.95757854	-0.252442	0.1372776
4.80355759938971e-10	0.95568883	-0.2621345	0.13220549
4.852985632966693e-10	0.95366174	-0.2719612	0.12690608
4.902029661733479e-10	0.9515542	-0.2816348	0.121529475
4.950595546627048e-10	0.9493747	-0.2911314	0.11609137
5.000154173114119e-10	0.9470576	-0.3007297	0.11042778
5.054598781826678e-10	0.9444065	-0.31115782	0.104075946
5.103047810596117e-10	0.9419568	-0.32032722	0.098312244
5.15253715961436e-10	0.9393694	-0.32957882	0.09231959
5.201488797900625e-10	0.93672836	-0.33860874	0.08629056
5.250111168048139e-10	0.9340277	-0.34745198	0.08020536
5.304866659068588e-10	0.9308983	-0.35725218	0.07324126
5.354093064254134e-10	0.9280089	-0.3659122	0.0668836
5.40255597171409e-10	0.92509806	-0.37429214	0.060538698
5.452113577095767e-10	0.92205733	-0.38270566	0.0539662
5.500933607389624e-10	0.91900253	-0.390834	0.04741202
5.555092918914135e-10	0.91555005	-0.39965874	0.040053476
5.60447087267458e-10	0.9123489	-0.4075218	0.033268772
5.653545978920706e-10	0.9091217	-0.41515866	0.026458364
5.702122967077426e-10	0.905887	-0.42253828	0.019655153
5.751698523277208e-10	0.9025494	-0.42988053	0.012652916
5.800385257842987e-10	0.8992405	-0.43690076	0.005722359
5.854612272724441e-10	0.89552516	-0.44449273	-0.0020543833
5.904103313917521e-10	0.8921124	-0.4512085	-0.009199927
5.953036197716258e-10	0.8887227	-0.4576446	-0.01630525
6.001691780348358e-10	0.88534224	-0.46384	-0.02340565
6.051290832588321e-10	0.88189125	-0.46994275	-0.030675422
6.105671536976547e-10	0.8781082	-0.4763835	-0.03867729
6.154159506640542e-10	0.87474126	-0.48190278	-0.04583476
6.203721673456874e-10	0.8713112	-0.4873241	-0.05316819
6.252509609335827e-10	0.8679512	-0.49244133	-0.06039976
6.30127582261818e-10	0.8646141	-0.49733704	-0.06763629
6.350833616053899e-10	0.8612501	-0.50208604	-0.074994184
6.405111421207755e-10	0.85760325	-0.5070242	-0.08305206
6.453707089997719e-10	0.854377	-0.511211	-0.09026103
6.503284995416464e-10	0.8511282	-0.5152532	-0.09760604
6.551965576974687e-10	0.84798527	-0.5189963	-0.104804456
6.6008563813381e-10	0.8448802	-0.52252996	-0.11201626
6.650397136235209e-10	0.84179115	-0.52587974	-0.11930177
6.704605462604394e-10	0.83848274	-0.52927876	-0.12724337
6.753282145578015e-10	0.83558047	-0.5320938	-0.13434343
6.802790351015051e-10	0.8326996	-0.534727	-0.14153063
6.851382917307459e-10	0.82994574	-0.5370865	-0.1485478
6.900474009248263e-10	0.8272419	-0.5392443	-0.1555961
6.955183543758524e-10	0.82432586	-0.5413822	-0.16339855
7.004032232939453e-10	0.8218131	-0.5430542	-0.1703147
7.052849936457595e-10	0.81939113	-0.5445028	-0.17717566
7.102312406565327e-10	0.8170317	-0.5457445	-0.18407229
7.150900725420663e-10	0.8148098	-0.5467437	-0.19079022
7.200068570652122e-10	0.81266135	-0.5475332	-0.19752815
7.254786165650435e-10	0.8103922	-0.5481511	-0.20495209
7.303503498417324e-10	0.80848277	-0.54847085	-0.21149299
7.35245124990566e-10	0.80667245	-0.5485749	-0.21799687
7.401860074607255e-10	0.8049574	-0.54846	-0.22449043
7.450410641714994e-10	0.8033846	-0.5481327	-0.23079887
7.504905191246989e-10	0.8017543	-0.5475134	-0.23779158
7.554298834033121e-10	0.80040246	-0.5467229	-0.24404697
7.602994014726678e-10	0.79918873	-0.545731	-0.25013474
7.652053727484378e-10	0.7980871	-0.54451907	-0.2561867
7.701386216320904e-10	0.79710364	-0.5430858	-0.2621881
7.755593508851003e-10	0.7961683	-0.5412636	-0.26868302
7.804458557226965e-10	0.79545677	-0.5393997	-0.2744468
7.853903600970675e-10	0.79486495	-0.53730047	-0.28018937
7.902438233553638e-10	0.7944103	-0.5350317	-0.28573704
7.95165357762664e-10	0.7940777	-0.5325206	-0.29127088
8.000864096885479e-10	0.7938749	-0.5297979	-0.29671043
8.054998457730618e-10	0.7938024	-0.52655834	-0.30258438
8.104052249538579e-10	0.793873	-0.5234013	-0.3078062
8.153436621401188e-10	0.79407513	-0.52001005	-0.31296507
8.201838934751916e-10	0.7944006	-0.5164784	-0.31792444
8.251303637862232e-10	0.7948632	-0.51265633	-0.3228924
8.300299783410231e-10	0.79545057	-0.50865746	-0.32771215
8.35442186510031e-10	0.796248	-0.5039929	-0.33291775
8.403620189092713e-10	0.79710734	-0.4995264	-0.33754054
8.452874391574253e-10	0.7980948	-0.49483776	-0.3420632
8.501359195251455e-10	0.7991899	-0.49000916	-0.346411
8.55087475196561e-10	0.80043316	-0.48485819	-0.35074332
8.60542390119249e-10	0.8019465	-0.47892457	-0.35538825
8.653883736505762e-10	0.8034158	-0.47342396	-0.359401
8.703227335472446e-10	0.8050302	-0.46759933	-0.3633756
8.752296926006728e-10	0.8067521	-0.46158147	-0.36721545
8.800882618729403e-10	0.8085691	-0.45539922	-0.3709053
8.850359824850055e-10	0.810531	-0.44887275	-0.3745468
8.904825640238848e-10	0.81281817	-0.44141608	-0.3784181
8.953330964272365e-10	0.8149637	-0.43453303	-0.38174292
9.002716835966952e-10	0.81725013	-0.42728767	-0.38500753
9.051678329777365e-10	0.819615	-0.4198658	-0.38812223
9.100361428159719e-10	0.8220593	-0.41224796	-0.39109713
9.155061741934015e-10	0.8249115	-0.40340185	-0.39429224
9.204216333326758e-10	0.827565	-0.39519104	-0.39702806
9.252764542573265e-10	0.8302654	-0.38683566	-0.39960223
9.302239310773971e-10	0.8330938	-0.37806675	-0.4020926
9.35105626656224e-10	0.835955	-0.3691604	-0.40441602
9.405233598317898e-10	0.83920574	-0.35897747	-0.40683603
9.454584538947967e-10	0.84222955	-0.34942538	-0.40889254
9.503621804697443e-10	0.84528714	-0.33967036	-0.41079348
9.552257728095167e-10	0.8483654	-0.32973322	-0.41253605
9.601743066605312e-10	0.8515375	-0.3193524	-0.41415995
9.65044366370402e-10	0.8546918	-0.30886787	-0.41560847
9.704693290822367e-10	0.8582346	-0.29687294	-0.41704336
9.754058558354835e-10	0.8614767	-0.28566664	-0.418182
9.803019839592261e-10	0.8647011	-0.27427617	-0.4191505
9.85173342554571e-10	0.8679097	-0.26266924	-0.41995174
9.901162361012743e-10	0.87115735	-0.25061122	-0.42059565
9.955579551145551e-10	0.87471235	-0.23700853	-0.4211029
1.0004135600570376e-09	0.87785643	-0.22458036	-0.4213732
1.005354122874571e-09	0.88101834	-0.2116534	-0.42146748
1.0102417087480048e-09	0.8840996	-0.19858618	-0.42137748
1.0151163585823533e-09	0.88711655	-0.18527806	-0.42110196
1.0200635107670618e-09	0.89011014	-0.17149201	-0.42062855
1.025495705621553e-09	0.8933054	-0.15603164	-0.41987866
1.030352480398731e-09	0.89606893	-0.14192557	-0.41899967
1.0352976149537277e-09	0.898781	-0.12729114	-0.4178977
1.0401800739372686e-09	0.9013462	-0.11257688	-0.4166007
1.0450577922771443e-09	0.9037865	-0.09761793	-0.41509295
1.050005817836575e-09	0.9061249	-0.08218403	-0.41334265
1.0554375776349655e-09	0.9085191	-0.06494758	-0.41115984
1.0602925750415535e-09	0.9104934	-0.049288295	-0.4089725
1.065243466321373e-09	0.9123335	-0.033081494	-0.4065078
1.0701195472689099e-09	0.9139635	-0.016892668	-0.40384498
1.0755383352983261e-09	0.9155486	0.0013511695	-0.40060693
1.080475095829086e-09	0.9167732	0.018193135	-0.39739698
1.085377962292669e-09	0.91777056	0.03511666	-0.39395976
1.0902357094997212e-09	0.9185333	0.052066587	-0.3903057
1.0951911383711882e-09	0.91906947	0.06953131	-0.3863198
1.1000563114858198e-09	0.91934836	0.08683536	-0.38214955
1.1054778349973158e-09	0.9193586	0.10628452	-0.37719905
1.1104236501445208e-09	0.91908205	0.124163054	-0.37240124
1.1153147794287802e-09	0.91853154	0.1419546	-0.36738983
1.1201845345037348e-09	0.9177021	0.15976086	-0.36213508
1.1251342493028395e-09	0.91656464	0.17793603	-0.35652143
1.1305723526793074e-09	0.91496503	0.19797084	-0.35003573
1.135423601660032e-09	0.9132234	0.21588147	-0.34396836
1.1403744706676894e-09	0.9111355	0.23417589	-0.33750254
1.145254264792078e-09	0.90876734	0.25220317	-0.33085948
1.1501265434538655e-09	0.9060933	0.2701776	-0.32396004
1.1550870246599968e-09	0.90305173	0.28843006	-0.3166637
1.160516416137293e-09	0.8993535	0.3083269	-0.30836576
1.1653676004232101e-09	0.8957237	0.32600987	-0.3006788
1.1703272923589406e-09	0.8916972	0.34397274	-0.29255733
1.17519401141086e-09	0.8874394	0.36146364	-0.28433412
1.1800818162270528e-09	0.8828615	0.378874	-0.2758267
1.185035312124342e-09	0.8779192	0.3963367	-0.26695603
1.1904567628792514e-09	0.87216824	0.41521388	-0.25696734
1.1953210381521048e-09	0.8667127	0.43191963	-0.24776316
1.2002803094150636e-09	0.8608715	0.4487051	-0.23815098
1.2051389684467515e-09	0.8548849	0.46488944	-0.22851793
1.2100397659444004e-09	0.8485926	0.48093438	-0.218593
1.215519707328e-09	0.8412682	0.49852076	-0.20725818
1.2204002218147728e-09	0.83450186	0.5138499	-0.1969626
1.2252794212639924e-09	0.82752144	0.52884465	-0.18649073
1.2302322754353595e-09	0.8202284	0.5437129	-0.17568788
1.2350847734425127e-09	0.81289446	0.557922	-0.1649454
1.2400022779335023e-09	0.80528605	0.57194746	-0.1539096
1.2454770597026371e-09	0.79662454	0.5871059	-0.14145985
1.250349409006713e-09	0.7887634	0.60018104	-0.13024762
1.2552355237272165e-09	0.7807511	0.61289155	-0.11889021
1.260185893164372e-09	0.7725171	0.6253517	-0.10727932
1.2650292497774438e-09	0.7643627	0.6371299	-0.09582947
1.2704764254392625e-09	0.7550938	0.6498829	-0.08286009
1.2754385806014575e-09	0.74657667	0.6610416	-0.07097371
1.280291155047332e-09	0.7381951	0.6715285	-0.059295617
1.2851989150050523e-09	0.72967976	0.68170565	-0.047441773
1.2901408455515293e-09	0.7210806	0.6915176	-0.035473354
1.2955536751643648e-09	0.7116504	0.70176345	-0.022341257
1.3004369036762586e-09	0.70314705	0.71055955	-0.010485192
1.3053894830924467e-09	0.69454074	0.7190503	0.0015364288
1.3102395536386524e-09	0.6861422	0.7269492	0.013296029
1.3151651190234813e-09	0.6776551	0.7345542	0.025215
1.3200867133464534e-09	0.6692289	0.74173886	0.037090495
1.3255030655434561e-09	0.6600315	0.74917454	0.050109066
1.3304024451883285e-09	0.6517919	0.75548255	0.06182916
1.335344959532495e-09	0.6435671	0.76145136	0.07358937
1.3401955298663813e-09	0.63558996	0.7669313	0.08506086
1.345130458319822e-09	0.62757945	0.77213067	0.09665265
1.350041658109316e-09	0.6197213	0.7769373	0.1081017
1.3554557150055802e-09	0.6111996	0.78182155	0.12061379
1.3603731694163327e-09	0.60359603	0.7858912	0.1318715
1.365298759209567e-09	0.59611726	0.7896273	0.14303945
1.3701564415547575e-09	0.58888257	0.792988	0.15394136
1.3750965512046069e-09	0.5816747	0.7960855	0.1649087
1.3805534487535584e-09	0.573895	0.7991434	0.1768771
1.3854134587591732e-09	0.56713253	0.801556	0.18740222
1.390335462156385e-09	0.56044835	0.8037111	0.19792856
1.3952540165838783e-09	0.5539385	0.80558455	0.20831013
1.4001126035109698e-09	0.5476783	0.80716974	0.21842709
1.405053833251989e-09	0.54148847	0.8085209	0.22857256
1.4105084604021066e-09	0.53486663	0.809718	0.2396011
1.4153659786460217e-09	0.52915895	0.810534	0.24926908
1.420294177555303e-09	0.523553	0.8111305	0.25892845
1.4252017386780284e-09	0.5181576	0.8115016	0.26839665
1.430062761709195e-09	0.51299894	0.8116584	0.27762586
1.4350123510185452e-09	0.5079378	0.8116106	0.2868701
1.4404587787616026e-09	0.5025932	0.8113263	0.29686326
1.445309661474555e-09	0.4980324	0.81087667	0.30560586
1.450250964938177e-09	0.49358034	0.8102363	0.31435883
1.4551456365158523e-09	0.48936367	0.80942744	0.32287782
1.4600156712854844e-09	0.48535958	0.8084572	0.3312053
1.4654879683383579e-09	0.48108825	0.8071777	0.34038693
1.4704009679178776e-09	0.47745895	0.80586547	0.34847313
1.4752556311097163e-09	0.4740635	0.8044224	0.3563188
1.4802057116684776e-09	0.47079626	0.80280685	0.3641724
1.4850854384275965e-09	0.46776772	0.80107707	0.37177163
1.4905033917065292e-09	0.46462822	0.79900235	0.38004524
1.4954386391148364e-09	0.46197194	0.79697645	0.38743398
1.50034041424688e-09	0.4595251	0.7948402	0.39463538
1.5052028843025106e-09	0.45728558	0.7926027	0.40164614
1.5101528626261309e-09	0.45519695	0.7902073	0.40864944
1.515021947566952e-09	0.4533297	0.7877385	0.41540924
1.5204431232790736e-09	0.45146838	0.78486174	0.42278785
1.5253878966545983e-09	0.44996935	0.78212297	0.4293851
1.5302758155791138e-09	0.44867307	0.77931035	0.43578443
1.5351448407640084e-09	0.4475642	0.7764063	0.442041
1.540097218618244e-09	0.44662207	0.7733494	0.44828647
1.5455305969128407e-09	0.44580293	0.76987755	0.4550046
1.5503845600067633e-09	0.44525987	0.7666725	0.46089047
1.5553311849821313e-09	0.44488868	0.7633066	0.46677905
1.5602140366474135e-09	0.44470197	0.7598858	0.47248554
1.5650892966154135e-09	0.4446926	0.75637287	0.47808075
1.5700393250204097e-09	0.44486338	0.75270635	0.48365936
1.5754702588380138e-09	0.4452588	0.7485674	0.4896644
1.5803199443540427e-09	0.44579506	0.74476784	0.49492723
1.5852711100688064e-09	0.44652003	0.7407869	0.5002057
1.5901448440163605e-09	0.44740814	0.7367662	0.5053107
1.5950249581709584e-09	0.44847026	0.73263735	0.5103345
1.600499464565833e-09	0.44986683	0.72788066	0.51586807
1.6053956003342553e-09	0.45129886	0.7235123	0.52072793
1.6102535434603107e-09	0.4528901	0.7190687	0.5254688
1.6152090842099617e-09	0.4546875	0.714421	0.53022385
1.6200699910964644e-09	0.45662117	0.70974624	0.5348104
1.6254869992138521e-09	0.45897445	0.7043976	0.53983325
1.630439579423389e-09	0.46130857	0.6993752	0.54434586
1.6353144665958284e-09	0.46377596	0.69430393	0.5487151
1.6401899294990855e-09	0.46641177	0.68910134	0.5530144
1.6451384664944683e-09	0.46925873	0.68368226	0.5573076
1.6505645302210926e-09	0.47257853	0.67757404	0.56193495
1.655424899778048e-09	0.4757278	0.6719494	0.5660101
1.660367060512798e-09	0.4790997	0.6660757	0.5700874
1.6652419697700051e-09	0.48259288	0.66012365	0.5740445
1.67012350622106e-09	0.48625642	0.6539997	0.57794344
1.6750558502217832e-09	0.49012595	0.6476391	0.5818192
1.6804843805858772e-09	0.49457893	0.640429	0.58601135
1.6853527054327558e-09	0.49874458	0.6337684	0.5897058
1.6902906671778112e-09	0.5031353	0.6268164	0.59339064
1.6951633106479145e-09	0.50763017	0.6197548	0.596965
1.7000470420497697e-09	0.51229584	0.61246777	0.600486
1.7055130692410685e-09	0.5177067	0.6040525	0.60435325
1.7104073872107832e-09	0.52271926	0.59627473	0.60774964
1.715266283550723e-09	0.52785045	0.5883165	0.6110587
1.7202140759880398e-09	0.5332319	0.57996	0.6143631
1.7250755464137047e-09	0.5386709	0.57149047	0.6175445
1.7305010355672254e-09	0.54491484	0.5617223	0.6210168
1.7354391062870188e-09	0.55075395	0.552529	0.62410355
1.7403211445549988e-09	0.5566694	0.5431443	0.62708426
1.7451920420150728e-09	0.5627088	0.53347576	0.62998545
1.75013165109333e-09	0.5689692	0.52334654	0.63285065
1.7555618912106444e-09	0.5760031	0.5118183	0.6359075
1.7604202438618507e-09	0.58242476	0.5011407	0.638556
1.7653537036778742e-09	0.5890636	0.48993215	0.6411582
1.7702338357539518e-09	0.5957405	0.4784676	0.6436414
1.7751092660417397e-09	0.60251236	0.46662506	0.6460274
1.7800478354374442e-09	0.6094667	0.45421734	0.6483423
1.785470911453398e-09	0.6172015	0.44009632	0.65075934
1.790334603426692e-09	0.6242149	0.42697334	0.65280896
1.7952731154671433e-09	0.6313977	0.41318828	0.65476865
1.8001416609506988e-09	0.6385271	0.39912876	0.6565735
1.805031699575171e-09	0.64572245	0.384522	0.65825117
1.8104919173105656e-09	0.65377903	0.3676179	0.659954
1.8153794806563264e-09	0.6609925	0.35193783	0.66131526
1.8202501544724335e-09	0.66816455	0.33578032	0.6625082
1.825190310591117e-09	0.6754021	0.31883502	0.66354024
1.830044684380596e-09	0.68245727	0.30162293	0.66436833
1.8354693930113486e-09	0.6902474	0.28171426	0.6650604
1.840417129350756e-09	0.6972392	0.26292115	0.66546214
1.8452813897068456e-09	0.7039806	0.24384284	0.665629
1.8501695992880447e-09	0.7105953	0.22405882	0.66555405
1.8551075946085795e-09	0.71708477	0.2034419	0.6652153
1.8605207293751044e-09	0.7239383	0.18010402	0.66451997
1.8653888587071657e-09	0.72983354	0.15845254	0.66358644
1.870339376306676e-09	0.73553187	0.13578841	0.6623187
1.8751880978940517e-09	0.74078715	0.11295949	0.66074705
1.880093539067149e-09	0.7457385	0.08923219	0.6588053
1.8850190664194e-09	0.7503015	0.06477622	0.65647954
1.8904290198500886e-09	0.7547935	0.037199236	0.6534661
1.8953148992570115e-09	0.7583392	0.011666327	0.65030926
1.900251492568792e-09	0.7613864	-0.014715709	0.64667827
1.9050970962171375e-09	0.76381415	-0.04115843	0.6426622
1.910020308899938e-09	0.7656692	-0.068550356	0.638103
1.9154828188148026e-09	0.76695794	-0.09952089	0.632455
1.9203367363244233e-09	0.767383	-0.12750836	0.6268954
1.925247617821414e-09	0.7670862	-0.15622547	0.62073416
1.9301646646903626e-09	0.7660233	-0.18533254	0.6140078
1.9350217995126868e-09	0.76419103	-0.21437816	0.6068009
1.9404717188519463e-09	0.7611774	-0.24724278	0.59803325
1.945402102369492e-09	0.7575539	-0.27715284	0.58946884
1.9502657621684886e-09	0.75312626	-0.3067534	0.58042336
1.955172100782532e-09	0.7477891	-0.3366374	0.5706922
1.9600913048380053e-09	0.7415534	-0.36654812	0.56032217
1.9655063893349687e-09	0.73366433	-0.39932078	0.54819775
1.9704022182712667e-09	0.7256135	-0.42872706	0.5366014
1.9753349991452987e-09	0.7166327	-0.45805782	0.5243167
1.9801889731472354e-09	0.706962	-0.4865511	0.5116512
1.985111953423242e-09	0.69633406	-0.51499856	0.49823642
1.9900181953878104e-09	0.6849513	-0.542823	0.4843157
1.995435836688669e-09	0.6715081	-0.5728517	0.46833125
2.0003437704516495e-09	0.6585825	-0.5993516	0.45332327
2.005263094545593e-09	0.64496154	-0.6251775	0.437807
2.0101264152065063e-09	0.63088924	-0.64993036	0.42203206
2.0150535952903263e-09	0.61606926	-0.6741683	0.40564185
2.0205085283835732e-09	0.5990671	-0.6999637	0.3870597
2.0253740820189435e-09	0.5834344	-0.7220117	0.37013772
2.030288440250493e-09	0.5672549	-0.7433315	0.3527522
2.035208005080371e-09	0.5507215	-0.76369596	0.3350907
2.0400688326869766e-09	0.53410846	-0.78284085	0.3174247
2.0450089909142476e-09	0.5169953	-0.8012942	0.29928938
2.05046032966467e-09	0.49790543	-0.8204789	0.27911144
2.055314037534653e-09	0.4807786	-0.8365229	0.26103854
2.0602475404962827e-09	0.46329188	-0.851837	0.2426022
2.065152083692944e-09	0.44587183	-0.8660809	0.22424218
2.0700167694097563e-09	0.42859626	-0.8792593	0.20603247
2.0754837940981556e-09	0.4092284	-0.8929655	0.1856075
2.080412821043415e-09	0.3918445	-0.9043466	0.16726105
2.085267594360416e-09	0.37482452	-0.914677	0.1492832
2.0902037058115824e-09	0.35764915	-0.9243137	0.13112435
2.095106371627822e-09	0.34074265	-0.933049	0.11323315
2.1005199210357386e-09	0.32227537	-0.9417629	0.093672484
2.1054426375464486e-09	0.30568495	-0.9488718	0.07608618
2.110366654923098e-09	0.289299	-0.955239	0.05870702
2.1152180569022025e-09	0.2733721	-0.9608164	0.041809063
2.120167614363573e-09	0.25735673	-0.96582735	0.024815928
2.125052709433369e-09	0.24179105	-0.9701319	0.008303457
2.1304694898336904e-09	0.2248209	-0.97419834	-0.009688554
2.1354043242724455e-09	0.20963314	-0.97729045	-0.025775487
2.1403144676592876e-09	0.19478473	-0.9798199	-0.041482575
2.1451692572920133e-09	0.18036611	-0.9818137	-0.05670949
2.1501241193541185e-09	0.16592243	-0.98335874	-0.071930975
2.155571733166296e-09	0.1503622	-0.9845217	-0.088285014
2.1604180182768775e-09	0.13680243	-0.9851149	-0.10249168
2.1653611475675484e-09	0.12324639	-0.9853202	-0.11664511
2.170261132838126e-09	0.110081986	-0.98515195	-0.13033502
2.1751213672068364e-09	0.097291976	-0.9846447	-0.14357655
2.1800770504875933e-09	0.084523305	-0.98380345	-0.15673012
2.1855178388361474e-09	0.070818454	-0.982532	-0.17076524
2.1903674235888528e-09	0.058876168	-0.9811165	-0.18291676
2.195314076774859e-09	0.04695636	-0.97942126	-0.19496393
2.2002042063684292e-09	0.03542807	-0.97751653	-0.2065297
2.2050723449842547e-09	0.024199042	-0.9754141	-0.21770597
2.2100270291908584e-09	0.0130186025	-0.97308195	-0.22873768
2.2154639149483834e-09	0.0010313619	-0.9703212	-0.24044847
2.2203133282539093e-09	-0.009418654	-0.9676989	-0.25054955
2.225265298089285e-09	-0.019860795	-0.9648819	-0.26053345
2.2301455894274787e-09	-0.029932022	-0.9619829	-0.27005038
2.2350205424898152e-09	-0.039781094	-0.95897925	-0.27924222
2.2404962272487297e-09	-0.05060067	-0.9554926	-0.289198
2.24540397840267e-09	-0.060087163	-0.95227927	-0.2977957
2.2502576075809863e-09	-0.06928027	-0.9490307	-0.3060018
2.255214096349437e-09	-0.07848178	-0.94565123	-0.3140831
2.260083046625982e-09	-0.08734454	-0.94228	-0.32173377
2.265500558746079e-09	-0.097009204	-0.93847924	-0.32991835
2.270446128791197e-09	-0.10565908	-0.93497264	-0.33709502
2.275343698999562e-09	-0.1140698	-0.93147326	-0.34393105
2.280201977722726e-09	-0.122267365	-0.92798173	-0.3504519
2.2851593346830418e-09	-0.13048963	-0.92440474	-0.35684472
2.290022484698855e-09	-0.13842252	-0.9208868	-0.36286592
2.2954428793130907e-09	-0.14711702	-0.9169613	-0.36929244
2.300388756265155e-09	-0.15492204	-0.9133803	-0.37490124
2.305281113685747e-09	-0.16252868	-0.90984267	-0.38021585
2.310143497652619e-09	-0.16998251	-0.9063349	-0.38527367
2.3150978521162346e-09	-0.17747448	-0.90277183	-0.3902029
2.3205351375670457e-09	-0.1855843	-0.89887774	-0.3953589
2.325380623339059e-09	-0.1927183	-0.89542425	-0.39973584
2.3303324346554e-09	-0.19992371	-0.89191306	-0.40400228
2.3352135264456265e-09	-0.20694718	-0.8884716	-0.40800864
2.340083573752076e-09	-0.21388145	-0.8850585	-0.4118138
2.3450407266165237e-09	-0.22086935	-0.8816067	-0.41549492
2.3504689114897973e-09	-0.22844537	-0.8778533	-0.41930944
2.3553191378013477e-09	-0.23515224	-0.87452376	-0.42253146
2.36027538437182e-09	-0.24194923	-0.87114525	-0.42564687
2.365143879455661e-09	-0.24857406	-0.8678501	-0.42853728
2.3700265938322685e-09	-0.25517043	-0.8645687	-0.43127126
2.3755056009257657e-09	-0.26251972	-0.8609144	-0.43414766
2.380398393284669e-09	-0.26903924	-0.85767555	-0.43654948
2.385260340583411e-09	-0.27548036	-0.8544792	-0.4387842
2.390213865481406e-09	-0.28200752	-0.8512451	-0.44090906
2.3950764028971216e-09	-0.28838292	-0.8480914	-0.4428493
2.400497092725123e-09	-0.29545608	-0.84459955	-0.44484648
2.4054452162264397e-09	-0.301884	-0.8414329	-0.44652086
2.4103285572667716e-09	-0.30820328	-0.8383263	-0.44803748
2.4151987745163464e-09	-0.31448355	-0.8352453	-0.44941893
2.420153715352523e-09	-0.32085237	-0.8321274	-0.4506932
2.4250018973848817e-09	-0.32706565	-0.82909167	-0.45181483
2.4304311484588453e-09	-0.334004	-0.8257085	-0.45292774
2.4353847681293024e-09	-0.34031814	-0.8226353	-0.45381427
2.4402589258130508e-09	-0.34651718	-0.8196227	-0.45456934
2.4451354998474682e-09	-0.35270676	-0.81661874	-0.4552114
2.4500882418735556e-09	-0.35898137	-0.8135768	-0.4557498
2.455514256495797e-09	-0.36584315	-0.81025285	-0.45621157
2.4603689794039405e-09	-0.37197247	-0.80728513	-0.4565138
2.465321814358802e-09	-0.37821665	-0.8042623	-0.45671684
2.470188445731552e-09	-0.38434392	-0.8012953	-0.45681524
2.4750763982320782e-09	-0.39049026	-0.79831713	-0.45681542
2.480023091039189e-09	-0.39670298	-0.79530394	-0.45671743
2.4854433195272853e-09	-0.40350214	-0.79200137	-0.4564994
2.4903088818290632e-09	-0.40959835	-0.78903455	-0.45620745
2.495263875710769e-09	-0.41579968	-0.78600967	-0.45581913
2.5001207906283147e-09	-0.4218715	-0.7830399	-0.45535126
2.505019630325413e-09	-0.42798895	-0.78003865	-0.4547941
2.510497237240567e-09	-0.43482074	-0.7766741	-0.45407242
2.5153710943230364e-09	-0.4408919	-0.77367145	-0.45334476
2.520249873216439e-09	-0.44696158	-0.7706561	-0.45253792
2.525198850665552e-09	-0.45311046	-0.76758635	-0.45164138
2.5300449297764126e-09	-0.45912308	-0.7645685	-0.45068902
2.5354832004873155e-09	-0.46585995	-0.7611667	-0.44953507
2.54043893805836e-09	-0.47198862	-0.7580515	-0.44840723
2.5452933090617655e-09	-0.47798175	-0.754985	-0.44723386
2.5501947704955236e-09	-0.48402205	-0.75187266	-0.44598213
2.5551337735484726e-09	-0.49009666	-0.74871916	-0.4446546
2.5605460013953435e-09	-0.49673852	-0.7452427	-0.4431259
2.565426541626583e-09	-0.5027139	-0.7420881	-0.441683
2.5703757860842805e-09	-0.50875884	-0.7388693	-0.44015932
2.5752242764268343e-09	-0.5146655	-0.73569596	-0.4386095
2.5801423837933527e-09	-0.52064073	-0.7324562	-0.4369813
2.5850612489325786e-09	-0.5265995	-0.72919416	-0.43529814
2.5904774090596377e-09	-0.5331395	-0.72557664	-0.43338364
2.595364768401841e-09	-0.5390207	-0.7222885	-0.43160295
2.600307589553187e-09	-0.544948	-0.7189398	-0.42975265
2.6051639673285514e-09	-0.5507504	-0.71562624	-0.42788786
2.6100777243773694e-09	-0.5565988	-0.7122498	-0.4259556
2.6155464773552076e-09	-0.56307983	-0.7084634	-0.42375326
2.620418081727004e-09	-0.56882715	-0.7050648	-0.42174736
2.6253116067258167e-09	-0.5745746	-0.7016264	-0.41969213
2.630248043399881e-09	-0.58034515	-0.6981329	-0.4175798
2.635101346282216e-09	-0.5859908	-0.6946736	-0.41546622
2.640024658621039e-09	-0.59168863	-0.6911395	-0.41328645
2.645489756135149e-09	-0.59797776	-0.687187	-0.4108266
2.6503504612158062e-09	-0.60353845	-0.6836458	-0.40860492
2.655256991109217e-09	-0.60911924	-0.68004644	-0.40633148
2.660187453973555e-09	-0.61469334	-0.67640483	-0.40401736
2.6650359243007128e-09	-0.6201407	-0.6727997	-0.40171415
2.670488808009323e-09	-0.6262254	-0.668717	-0.39909285
2.6754378425666226e-09	-0.63170874	-0.664986	-0.3966871
2.6802856147467976e-09	-0.6370426	-0.66130817	-0.39430726
2.6852084516667946e-09	-0.6424204	-0.65755033	-0.39186844
2.690126962037665e-09	-0.64775383	-0.65377295	-0.3894108
2.6955354803282605e-09	-0.6535715	-0.64959335	-0.38668573