# t (s)	mx ()	my ()	mz ()
0	0.099875234	0.94881475	0.29962572
1.0027764663774364e-10	0.1745342	0.97236836	0.15350705
2.0043357398255554e-10	0.19428578	0.9784571	0.06744435
3.000612201599556e-10	0.18271144	0.9828817	0.016630713
4.0029339034563114e-10	0.1522419	0.9881077	-0.014048791
5.004988776090449e-10	0.10984602	0.9932745	-0.032861732
6.001129484612167e-10	0.05969105	0.99708194	-0.04482583
7.002993862825702e-10	0.0033654296	0.9984602	-0.053003453
8.005407172469607e-10	-0.05758513	0.9964634	-0.05897572
9.001677415720299e-10	-0.12180152	0.99036944	-0.06360377
1.000312839140814e-09	-0.18917802	0.97946656	-0.06735927
1.1005597330897241e-09	-0.2585354	0.96324855	-0.07035303
1.2002203404074753e-09	-0.32829666	0.9415661	-0.07255036
1.3003684742776797e-09	-0.3979649	0.9141663	-0.07390036
1.4000133609253234e-09	-0.46555012	0.8816042	-0.074333936
1.5002581976812477e-09	-0.5305622	0.8440938	-0.073865935
1.6004733732358233e-09	-0.59154284	0.8026354	-0.07258802
1.7001042137260453e-09	-0.6474834	0.7583972	-0.07068256
1.8002856044524519e-09	-0.6986505	0.7117642	-0.06833972
1.9005437097978572e-09	-0.7446883	0.66370803	-0.065787695
2.0002149644046295e-09	-0.7855014	0.61514246	-0.06324581
2.1003835527305216e-09	-0.82186353	0.5659275	-0.06085348
2.2000538358330163e-09	-0.853807	0.5167469	-0.058760963
2.3003108332853807e-09	-0.88208216	0.46709594	-0.05703612
2.4004923105140092e-09	-0.9068487	0.41719848	-0.05575288
2.500122482745582e-09	-0.92833155	0.3670916	-0.054949354
2.600336944490967e-09	-0.9470047	0.31592625	-0.054636456
2.700022398885237e-09	-0.9627951	0.26394504	-0.054825902
2.8002021907786887e-09	-0.9759034	0.2102602	-0.055517234
2.9003667821950207e-09	-0.9861721	0.154775	-0.05669719
3.000041613977416e-09	-0.99339235	0.097434126	-0.058328055
3.1002653901608924e-09	-0.9973427	0.037366275	-0.060376238
3.2003970254193923e-09	-0.9975767	-0.025222879	-0.06274901
3.3000502046275904e-09	-0.9936512	-0.09006425	-0.06531286
3.4003031089273804e-09	-0.9850038	-0.15762985	-0.06792898
3.5004506607273807e-09	-0.97118413	-0.22694883	-0.07037239
3.600084993305749e-09	-0.95194834	-0.29692072	-0.07240911
3.7003143201374417e-09	-0.92694485	-0.3672594	-0.07384676
3.8005417019268104e-09	-0.8964302	-0.43631428	-0.07450936
3.9001711370306965e-09	-0.86109465	-0.50244933	-0.074326344
4.000350460223385e-09	-0.82125455	-0.5653248	-0.07332523
4.1000354933555105e-09	-0.7781922	-0.62344897	-0.07163747
4.200277229819297e-09	-0.7323613	-0.6769183	-0.06943171
4.300446500436763e-09	-0.684863	-0.72517294	-0.06693328
4.400110538168648e-09	-0.6365843	-0.7681292	-0.06436345
4.500371389575561e-09	-0.58746547	-0.8065241	-0.06187532
4.6000358050013e-09	-0.53836596	-0.84027255	-0.059641175
4.700213059819814e-09	-0.48883837	-0.8701658	-0.057740938
4.80043876020557e-09	-0.4390626	-0.8964265	-0.056258045
4.900122308933868e-09	-0.389171	-0.9192675	-0.05524323
5.000288692849848e-09	-0.33840248	-0.9391947	-0.054711808
5.1004671717929445e-09	-0.28668183	-0.9562718	-0.054682564
5.200146084400312e-09	-0.23393638	-0.9705141	-0.055154096
5.300361865612567e-09	-0.17925672	-0.9820446	-0.056123435
5.400503964948491e-09	-0.12261538	-0.99064034	-0.05756683
5.500161076014949e-09	-0.06395948	-0.99604595	-0.059434414
5.600410078432214e-09	-0.0024350686	-0.99796027	-0.061679564
5.700041377748483e-09	0.061289	-0.9959181	-0.06417191
5.800180467925233e-09	0.12780158	-0.9894001	-0.066792116
5.900426321784492e-09	0.19647217	-0.9778881	-0.06933968
6.000089414578751e-09	0.266139	-0.96108186	-0.071577534
6.100237258496007e-09	0.3365867	-0.9385722	-0.07330547
6.200442432472821e-09	0.40634355	-0.910435	-0.07432184
6.300127331899865e-09	0.4737627	-0.87719995	-0.07451069
6.400320662759799e-09	0.5383567	-0.83914185	-0.073857725
6.50050777153975e-09	0.5988008	-0.7972465	-0.072444424
6.6001869129651185e-09	0.6541691	-0.7526592	-0.070446014
6.700432566775086e-09	0.70472926	-0.7057744	-0.068047665
6.800080707017256e-09	0.7498692	-0.65787953	-0.06549086
6.900257582281673e-09	0.7903012	-0.6089972	-0.062942274
7.000523992992168e-09	0.826141	-0.5596982	-0.060574614
7.10019089211776e-09	0.85757744	-0.5104965	-0.058523737
7.200335542157051e-09	0.88536406	-0.4608727	-0.056852214
7.300571653875521e-09	0.90973073	-0.41089916	-0.05562579
7.400255023668005e-09	0.9308456	-0.36068568	-0.054882824
7.500423909294996e-09	0.94915164	-0.30942446	-0.05463313
7.600060445042752e-09	0.964589	-0.25730747	-0.05488535
7.700307875791699e-09	0.97735566	-0.20337848	-0.055639498
7.800490047383515e-09	0.9872578	-0.14763093	-0.05687956
7.900106665545397e-09	0.9940775	-0.090034455	-0.058563977
8.000318451675584e-09	0.99758494	-0.029656267	-0.06065818
8.100542717273954e-09	0.9973186	0.033319157	-0.06306646
8.200158438816537e-09	0.99283236	0.098447606	-0.065644056
8.300325783074298e-09	0.98356664	0.1662189	-0.06824867
8.400005439353643e-09	0.9691509	0.23538752	-0.07064446
8.500227719911815e-09	0.9491043	0.30582765	-0.07262844
8.600369831532053e-09	0.9234146	0.37601367	-0.07397481
8.70003032422149e-09	0.8924266	0.44443542	-0.07453215
8.800288266013912e-09	0.8562937	0.5105953	-0.07424357
8.900460748293837e-09	0.81597203	0.5729426	-0.07314631
9.000102808788641e-09	0.77256227	0.630439	-0.071384355
9.100328900858342e-09	0.72648203	0.6832544	-0.06913003
9.200014038568318e-09	0.67905486	0.73064345	-0.066622406
9.300201440604776e-09	0.6304333	0.7732136	-0.064042024
9.400401964338243e-09	0.58129823	0.8110048	-0.06157856
9.500082588367505e-09	0.53216666	0.84423286	-0.05938224
9.600325205983417e-09	0.4825839	0.8736664	-0.057529997
9.700479894619349e-09	0.4328056	0.89947623	-0.056104325
9.800131857876195e-09	0.38286552	0.92191964	-0.055149663
9.900388460415392e-09	0.3319505	0.94149876	-0.054680347
1.0000044532996644e-08	0.28036028	0.9581448	-0.0547132
1.010019615519213e-08	0.22718069	0.9721142	-0.05524867
1.0200427600326774e-08	0.17225972	0.98328876	-0.05627929
1.0300099386259494e-08	0.11561668	0.9914707	-0.057771813
1.0400246553599343e-08	0.056370545	0.99648917	-0.059698112
1.0500433346925176e-08	-0.0054411837	0.99792945	-0.06198143
1.0600114167771732e-08	-0.06951705	0.9953555	-0.06449838
1.0700302878003395e-08	-0.13635226	0.9882339	-0.06712171
1.080045362626147e-08	-0.20517771	0.9760746	-0.06964211
1.0900125382352198e-08	-0.2749635	0.95857275	-0.07182703
1.1000368808179509e-08	-0.34545422	0.9353279	-0.073476255
1.1100006215323242e-08	-0.4146398	0.9066777	-0.07438967
1.1200162595788858e-08	-0.4820479	0.8726743	-0.074474394
1.1300420531718171e-08	-0.54621017	0.83406097	-0.0737189
1.1400089010669149e-08	-0.6057807	0.79197377	-0.072229624
1.1500262288826374e-08	-0.6608025	0.746868	-0.070161775
1.160049992512846e-08	-0.7107066	0.69978595	-0.067730114
1.170019245874318e-08	-0.75523126	0.651751	-0.065164804
1.1800360310402655e-08	-0.7950567	0.6028103	-0.06263142
1.1900037965940322e-08	-0.83014715	0.55377066	-0.060309164
1.2000284117616429e-08	-0.86127627	0.5042623	-0.05829049
1.210050024046639e-08	-0.88862884	0.45457345	-0.05667154
1.2200132077724856e-08	-0.9124481	0.4048508	-0.05551002
1.230034984205177e-08	-0.9333065	0.35428536	-0.054823756
1.2400036125137941e-08	-0.95117617	0.3031501	-0.05463711
1.2500226221321896e-08	-0.96635735	0.25057796	-0.05495318
1.2600383384618413e-08	-0.97875947	0.19648346	-0.05576905
1.2700065009921208e-08	-0.9882511	0.14076391	-0.057060767
1.2800285476016509e-08	-0.9947151	0.0825282	-0.058808457
1.2900418127391738e-08	-0.9977684	0.021876037	-0.060946174
1.300007096581861e-08	-0.9970101	-0.041059073	-0.063371226
1.3100319656963304e-08	-0.991934	-0.10690355	-0.0659769
1.3200465554246935e-08	-0.98203266	-0.17491667	-0.068568215
1.3300100660505878e-08	-0.9669401	-0.2442189	-0.070922114
1.3400340381497733e-08	-0.94617635	-0.314711	-0.07283707
1.350001723346114e-08	-0.9199165	-0.38446262	-0.07408678
1.360017927993237e-08	-0.8881248	-0.4529621	-0.074542835
1.3700375625613986e-08	-0.8514368	-0.51866275	-0.07414805
1.3800066443497128e-08	-0.8108509	-0.5801876	-0.07296436
1.390027425213378e-08	-0.766847	-0.63740635	-0.07112141
1.4000460885948664e-08	-0.7205397	-0.6895487	-0.06882218
1.4100154587871934e-08	-0.6729566	-0.7362944	-0.066295855
1.4200385226375306e-08	-0.62422913	-0.7782588	-0.06372013
1.4300021847089572e-08	-0.5753295	-0.8152733	-0.061295353
1.4400244121381229e-08	-0.52590835	-0.8481657	-0.059126638
1.4500488271150643e-08	-0.4763008	-0.8771235	-0.057325006
1.4600139571597534e-08	-0.42673302	-0.9023846	-0.0559623
1.4700325356805966e-08	-0.37645718	-0.92456275	-0.055062592
1.4800017477629242e-08	-0.32572502	-0.94367427	-0.054657627
1.4900228709507607e-08	-0.2737009	-0.9600681	-0.054753292
1.5000383250947372e-08	-0.2203246	-0.9736872	-0.055352192
1.510004818598711e-08	-0.16548027	-0.9844449	-0.056436658
1.5200289996897762e-08	-0.1082376	-0.9922916	-0.05799361
1.5300427755243714e-08	-0.04868364	-0.99687845	-0.059969522
1.5400061340565758e-08	0.013107454	-0.99783957	-0.062277447
1.5500311876502487e-08	0.07786553	-0.9947146	-0.0648296
1.5600482862769174e-08	0.1449739	-0.9869816	-0.0674512
1.570010530162762e-08	0.21364157	-0.9742338	-0.06993059
1.580031689789068e-08	0.28390187	-0.95594215	-0.07207078
1.590054822957895e-08	0.35434052	-0.93198156	-0.07363586
1.6000181227493792e-08	0.42332178	-0.90264857	-0.07444771
1.6100345427555914e-08	0.49037677	-0.86802256	-0.07442415
1.6200033395548567e-08	0.553696	-0.8291208	-0.07357426
1.6300278784752957e-08	0.6130347	-0.7863919	-0.07199501
1.6400463014416815e-08	0.66741866	-0.74098855	-0.06986894
1.6500114680756954e-08	0.71639127	-0.6939956	-0.06742185
1.660036003434986e-08	0.7605375	-0.6455854	-0.06483811
1.670005601217023e-08	0.79958916	-0.5968186	-0.062333714
1.6800245196188517e-08	0.83431894	-0.54749906	-0.06003346
1.6900427081180094e-08	0.8649294	-0.4980011	-0.058062732
1.700011455560746e-08	0.89170086	-0.44854346	-0.05650554
1.7100358937413387e-08	0.9152662	-0.39846033	-0.05539552
1.7200501626079883e-08	0.93573207	-0.3478431	-0.054772425
1.730014966215011e-08	0.95324117	-0.2965984	-0.054649137
1.7400399831272544e-08	0.9680823	-0.24382015	-0.055029076
1.7500048408552273e-08	0.9800745	-0.18978527	-0.055901647
1.7600187997215835e-08	0.9892416	-0.13355136	-0.057257198
1.7700414293092514e-08	0.9952961	-0.07501249	-0.05905824
1.7800086062011687e-08	0.9978882	-0.014323448	-0.06122886
1.7900233388170602e-08	0.996618	0.049246036	-0.06369469
1.8000415137419603e-08	0.99096364	0.11535096	-0.06630788
1.8100096798859842e-08	0.980481	0.18328935	-0.06887154
1.820029652838466e-08	0.96462184	0.2531329	-0.07119466
1.8300445044122586e-08	0.9431604	0.3235827	-0.07303502
1.8400110449772266e-08	0.91620576	0.3931959	-0.074190274
1.8500358541712608e-08	0.8837344	0.46146327	-0.07453978
1.860001750384965e-08	0.8466903	0.5263859	-0.074043885
1.8700186554349902e-08	0.8054625	0.58766717	-0.07276444
1.880044022780859e-08	0.7610978	0.64428884	-0.07085128
1.890011540933261e-08	0.7147997	0.6955266	-0.068522386
1.900027599391043e-08	0.666854	0.74185586	-0.06596931
1.9100490226088707e-08	0.61805683	0.7831969	-0.063402504
1.920017367208372e-08	0.5690959	0.81966054	-0.061004072
1.9300387861670062e-08	0.51965654	0.85203	-0.058877338
1.9400036171417767e-08	0.47031927	0.88036	-0.057136416
1.9500259887492084e-08	0.42042407	0.90535223	-0.055822276
1.9600487348121594e-08	0.3700537	0.92715156	-0.054983653
1.970011948967724e-08	0.3192413	0.9458907	-0.054641835
1.98002975418767e-08	0.26708043	0.96193045	-0.054800987
1.9900554542193758e-08	0.21344939	0.97521305	-0.05546347
2.0000199277266558e-08	0.15837196	0.9856051	-0.05660822
2.010033515975546e-08	0.10090573	0.9930517	-0.05821953
2.0200569788368274e-08	0.0409797	0.9972086	-0.060245633
2.0300238441252807e-08	-0.021161105	0.99768144	-0.06259054
2.0400379268637716e-08	-0.08616651	0.9940074	-0.06515863
2.0500008658701022e-08	-0.15317996	0.98571825	-0.0677618
2.060025523318638e-08	-0.22247085	0.97223175	-0.07022531
2.070044505567446e-08	-0.29279825	0.9532339	-0.072304085
2.0800071728698802e-08	-0.36275172	0.9287256	-0.073776
2.090028061503655e-08	-0.43191496	0.89856136	-0.074491896
2.1000524932065286e-08	-0.4986476	0.86330014	-0.074360415
2.110017026638717e-08	-0.56143695	0.8239107	-0.07341195
2.1200344821139208e-08	-0.6201396	0.7808219	-0.07175397
2.1300025130469458e-08	-0.67362505	0.7353772	-0.06958582
2.140025980702162e-08	-0.72224426	0.6879344	-0.06709822
2.150042807696306e-08	-0.7657248	0.6394585	-0.06451508
2.1600106345135306e-08	-0.8041832	0.5906483	-0.06203077
2.170036192455898e-08	-0.8383953	0.5412694	-0.05976502
2.180002695158632e-08	-0.86837035	0.49200553	-0.057850856
2.190018504325334e-08	-0.89483625	0.44228125	-0.056340374
2.2000420809137266e-08	-0.91799945	0.3921434	-0.055290222
2.2100105306656155e-08	-0.93800986	0.34166655	-0.05473082
2.2200263898587626e-08	-0.9552622	0.2900268	-0.05466919
2.2300453553097698e-08	-0.9697472	0.23710099	-0.055112146
2.2400137766334126e-08	-0.98139036	0.18282333	-0.056046367
2.2500338867103163e-08	-0.9901846	0.12628676	-0.05746119
2.2600475644264013e-08	-0.99581945	0.067497306	-0.059312772
2.2700138653781695e-08	-0.9979517	0.006491746	-0.06152494
2.2800378988994823e-08	-0.99615633	-0.05746268	-0.06402011
2.2900006326995516e-08	-0.9899591	-0.123493314	-0.0666251
2.300015241411771e-08	-0.97879255	-0.19197914	-0.06918154
2.310040078505976e-08	-0.9622307	-0.26199317	-0.07145753
2.320006752120922e-08	-0.9401752	-0.33210796	-0.0732151
2.330021054003587e-08	-0.91240776	-0.40190607	-0.074280776
2.3400414816598058e-08	-0.8793104	-0.46983466	-0.074523166
2.3500097162667046e-08	-0.8417104	-0.53432506	-0.073923685
2.3600308751236047e-08	-0.80002403	-0.5950726	-0.072554365
2.3700490975354592e-08	-0.755366	-0.65102786	-0.07057677
2.3800150236969864e-08	-0.7088584	-0.7016113	-0.06820994
2.3900413192418732e-08	-0.6607307	-0.7473444	-0.06564219
2.4000090100615797e-08	-0.6121252	-0.7878674	-0.063099965
2.4100255454168498e-08	-0.5628931	-0.82395566	-0.060718946
2.4200511041565736e-08	-0.5134118	-0.85582656	-0.05863446
2.4300169453132273e-08	-0.46404296	-0.8836993	-0.056945514
2.4400316507737275e-08	-0.4141391	-0.9082551	-0.055690497
2.4500545774312826e-08	-0.36369032	-0.9296729	-0.054913245
2.4600232760271187e-08	-0.3127343	-0.9480649	-0.054634083
2.470038935620528e-08	-0.26042485	-0.96375275	-0.05485676
2.4800024232877268e-08	-0.20692769	-0.9766129	-0.055575855
2.4900272014902107e-08	-0.15127344	-0.9867107	-0.056786098
2.5000457918250047e-08	-0.09348977	-0.9937645	-0.05845346
2.510007244100577e-08	-0.033626355	-0.9974677	-0.06051278
2.520027565169094e-08	0.029167503	-0.99745923	-0.06290362
2.5300505916825763e-08	0.094544984	-0.9932224	-0.06549002
2.5400127665685843e-08	0.16182043	-0.98431224	-0.06808536
2.5500289328409923e-08	0.23123722	-0.97016066	-0.0705113
2.560054162177542e-08	0.30167347	-0.95044214	-0.07252721
2.5700190551110184e-08	0.37156105	-0.9252222	-0.07391105
2.580033545340552e-08	0.44043955	-0.89440787	-0.07452243
2.5900572614487603e-08	0.50677633	-0.85855734	-0.07428419
2.6000255085964014e-08	0.56907594	-0.8186663	-0.07323899
2.6100440558848877e-08	0.6271827	-0.7751977	-0.07150406
2.620009007134876e-08	0.68001	-0.7295051	-0.069286145
2.6300332966352563e-08	0.7279832	-0.68189085	-0.06677491
2.6400027743068524e-08	0.77064675	-0.63355106	-0.06420537
2.6500217113846832e-08	0.8087285	-0.5844437	-0.06173007
2.660041831442793e-08	0.84238815	-0.5350668	-0.05950325
2.670012531367976e-08	0.87189615	-0.48575982	-0.057636708
2.6800321860448455e-08	0.89793575	-0.43598002	-0.056181677
2.6900498160292736e-08	0.92068803	-0.3858089	-0.055192493
2.7000180965397693e-08	0.9403321	-0.33523494	-0.054695345
2.710041893213919e-08	0.9572458	-0.2834137	-0.054697357
2.7200057560010113e-08	0.9713111	-0.23059793	-0.05519967
2.7300221854775745e-08	0.98266	-0.17583284	-0.056198575
2.7400472184540172e-08	0.9910763	-0.11899545	-0.057671905
2.7500114317427464e-08	0.99627304	-0.06019684	-0.059564363
2.760024401241878e-08	0.99795306	0.0014144003	-0.06182661
2.7700478125267077e-08	0.9956258	0.065689124	-0.064346395
2.7800148503860402e-08	0.9888314	0.13204002	-0.06695585
2.790029122099482e-08	0.9770069	0.2007502	-0.06948912
2.8000488806768243e-08	0.95975304	0.27085066	-0.071711995
2.810017388746599e-08	0.93698275	0.34096354	-0.073391356
2.820036640901105e-08	0.9085075	0.41062456	-0.07435843
2.8300526390853084e-08	0.874792	0.47819376	-0.074492924
2.840020396449902e-08	0.8366577	0.5422164	-0.073790945
2.8500455121848545e-08	0.7945274	0.602416	-0.07233412
2.860011349782507e-08	0.7497984	0.65746063	-0.070305616
2.870027941956852e-08	0.7028511	0.70765984	-0.06789217
2.880053504476022e-08	0.6546028	0.7527472	-0.06531568
2.8900217818865608e-08	0.60592914	0.7926691	-0.06278701
2.9000373652181258e-08	0.55666953	0.82819575	-0.06043776
2.910002355143121e-08	0.50746644	0.8593828	-0.058409046
2.9200282834209306e-08	0.45777187	0.8869783	-0.056761988
2.9300485099847496e-08	0.40779033	0.9111336	-0.05556517
2.9400119597277623e-08	0.35756093	0.93205345	-0.054852925
2.9500316453965512e-08	0.30622512	0.9501897	-0.05463431
2.960000162541985e-08	0.2540007	0.9654643	-0.05491789
2.9700209423536238e-08	0.19998808	0.9780523	-0.055702575
2.9800352494390703e-08	0.14413652	0.9877693	-0.056971334
2.990001789069498e-08	0.08636814	0.99439603	-0.058683015
3.000025587973365e-08	0.025815923	0.99768317	-0.060800128
3.010038894984388e-08	-0.03726316	0.9971689	-0.06322174
3.0200030088522376e-08	-0.10255842	0.9924048	-0.06580606
3.0300282304871276e-08	-0.17051396	0.9828192	-0.068406925
3.0400448959614047e-08	-0.24010673	0.9679802	-0.07079359
3.050007493531684e-08	-0.3101504	0.9476911	-0.07273108
3.0600292435507174e-08	-0.38033688	0.9216359	-0.07403343
3.0700532225181334e-08	-0.44901842	0.890127	-0.07453958
3.0800163245504764e-08	-0.5145537	0.8539233	-0.07419854
3.0900338840784055e-08	-0.57664233	0.8133688	-0.073055156
3.100002747120506e-08	-0.6338665	0.76976377	-0.07125682
3.1100267947476645e-08	-0.68636924	0.72355413	-0.0689793
3.120043256310275e-08	-0.7336534	0.67581916	-0.066449836
3.130009029652739e-08	-0.77568233	0.6274102	-0.06388557
3.1400345943546215e-08	-0.8132099	0.5782264	-0.06143297
3.15000278991009e-08	-0.8461793	0.5290822	-0.0592561
3.160019602195415e-08	-0.8753573	0.4795243	-0.05742973
3.1700397926965385e-08	-0.9009687	0.42970267	-0.056031145
3.180008490318022e-08	-0.92322713	0.37971148	-0.055105917
3.190028140799733e-08	-0.9426142	0.32877523	-0.054667808
3.2000439112206904e-08	-0.959165	0.27685016	-0.054733194
3.210011015492704e-08	-0.9728898	0.22382808	-0.05529811
3.220034725700121e-08	-0.9838871	0.1687871	-0.056358833
3.230048373375777e-08	-0.9919092	0.111737706	-0.057887405
3.2400128323614126e-08	-0.996686	0.052631594	-0.059829354
3.250037932806842e-08	-0.99789065	-0.009381023	-0.062133133
3.260002719545431e-08	-0.99505156	-0.073593535	-0.06466009
3.270015838441358e-08	-0.98763657	-0.14053008	-0.0672818
3.2800382472403945e-08	-0.9751419	-0.20951024	-0.069790624
3.290005691022282e-08	-0.9572934	-0.27934846	-0.07194792
3.3000222868211156e-08	-0.9337161	-0.3497662	-0.07355533
3.3100399335781135e-08	-0.904562	-0.4192257	-0.07442206
3.320008862722687e-08	-0.8704014	-0.48614064	-0.07445137
3.3300305098376096e-08	-0.83154726	-0.55003726	-0.07364623
3.34004707647211e-08	-0.78904265	-0.60960704	-0.07210691
3.350014855306522e-08	-0.7440108	-0.66403234	-0.070019424
3.3600391691350553e-08	-0.6968322	-0.71361804	-0.06757234
3.3700024754530734e-08	-0.64877146	-0.7578065	-0.06500603
3.380018998623098e-08	-0.5998041	-0.79733974	-0.062480934
3.390044797706116e-08	-0.55046463	-0.8323549	-0.060162533
3.4000127294277455e-08	-0.5012258	-0.8630555	-0.0581787
3.410030088836232e-08	-0.45154333	-0.89017904	-0.056586914
3.42004940218979e-08	-0.401513	-0.9139269	-0.05544902
3.4300183095427974e-08	-0.35117015	-0.9344858	-0.05479788
3.4400383625263803e-08	-0.29970604	-0.95226794	-0.05464253
3.45000073405824e-08	-0.24734458	-0.967189	-0.05498873
3.460021322863264e-08	-0.19311798	-0.9794262	-0.05583511
3.470045058057774e-08	-0.13695453	-0.988781	-0.057164025
3.480007340233074e-08	-0.07891598	-0.9950015	-0.058928154
3.490022573333874e-08	-0.01809599	-0.9978355	-0.06108749
3.500047792418387e-08	0.04538397	-0.9968114	-0.06354208
3.510012340911614e-08	0.11098633	-0.9914743	-0.06613709
3.520025636243155e-08	0.17911053	-0.9812647	-0.0687206
3.530048381652757e-08	0.24890241	-0.96573293	-0.07106614
3.540016208330689e-08	0.3190132	-0.9447254	-0.072934195
3.550032716580815e-08	0.3890422	-0.9179829	-0.0741425
3.5600511626612424e-08	0.45740733	-0.88584185	-0.074542955
3.570019784245291e-08	0.5225574	-0.8490551	-0.07409724
3.580042126063556e-08	0.5841349	-0.8080201	-0.07286072
3.5900065019027544e-08	0.6407212	-0.7640909	-0.07099309
3.600024362033939e-08	0.6925458	-0.7176737	-0.06867341
3.610050561310324e-08	0.73923177	-0.6697459	-0.06612472
3.620016051907224e-08	0.78064597	-0.6212579	-0.063567616
3.6300344630459055e-08	0.81757677	-0.57206917	-0.0611431
3.64000163661844e-08	0.85002834	-0.52290785	-0.059006788
3.6500266531858904e-08	0.8787619	-0.47328505	-0.05722955
3.660042929424754e-08	0.90393984	-0.42344102	-0.055888545
3.670007860843878e-08	0.92580587	-0.37339848	-0.05502399
3.68003269181981e-08	0.94484174	-0.322328	-0.054648317
3.690052362990144e-08	0.9610504	-0.27023154	-0.054777157
3.700014855340501e-08	0.9744228	-0.21703891	-0.055404197
3.710035676061466e-08	0.9850566	-0.16177359	-0.056525003
3.7200038589112356e-08	0.9926642	-0.10470972	-0.05810135
3.730020536416444e-08	0.99704427	-0.044987924	-0.06010126
3.740036499616273e-08	0.99776554	0.017294187	-0.062439818
3.75000410968042e-08	0.99438477	0.081840016	-0.06498715
3.760025443602972e-08	0.9863535	0.14911012	-0.0676082
3.770038996860042e-08	0.97320336	0.2182318	-0.070084766
3.780005439883009e-08	0.95465946	0.28815213	-0.072183594
3.790030090561983e-08	0.93035364	0.35857397	-0.07370789
3.8000454796814755e-08	0.9005276	0.42780703	-0.0744725
3.810009944834208e-08	0.86577797	0.4943305	-0.074395336
3.820035163196851e-08	0.82640105	0.55775625	-0.07349049
3.830002777580284e-08	0.78371793	0.61646205	-0.0718797
3.8400199492158416e-08	0.73818624	0.67053115	-0.0697274
3.85004100260389e-08	0.6908397	0.71945107	-0.06725277
3.8600095872533267e-08	0.64264774	0.7630352	-0.06468229
3.870027883383366e-08	0.59361684	0.8019824	-0.062175333
3.8800476193830086e-08	0.54427963	0.8364339	-0.05989344
3.890015692279691e-08	0.49501887	0.8666479	-0.05795609
3.900039478680168e-08	0.44527188	0.89334583	-0.05641799
3.910003337412455e-08	0.39546287	0.9165697	-0.05534439
3.920020007929997e-08	0.34478965	0.936864	-0.054750897
3.9300454099337146e-08	0.29316622	0.95430297	-0.05465873
3.940011768537686e-08	0.24060807	0.96888447	-0.055068064
3.950025797213121e-08	0.18619521	0.98075944	-0.055975676
3.960048571224829e-08	0.12977305	0.9897388	-0.057362817
3.970016090667923e-08	0.071405396	0.99555445	-0.05918009
3.9800307408596505e-08	0.010265664	0.9979288	-0.061382093
3.990049113992578e-08	-0.053496003	0.99638766	-0.06386302
4.0000171819240737e-08	-0.1194195	0.9904703	-0.066466615
4.010036128130963e-08	-0.18782301	0.9796101	-0.0690338
4.020051101302689e-08	-0.2577042	0.96339905	-0.07133114
4.0300186240141606e-08	-0.3278253	0.94168556	-0.07312572
4.040042521741975e-08	-0.39776498	0.9142257	-0.07423924
4.050006568785262e-08	-0.46546763	0.8816308	-0.07453354
4.0600225423864977e-08	-0.5304948	0.84412587	-0.07398352
4.070047548689938e-08	-0.59153664	0.80263376	-0.07265653
4.0800150552318e-08	-0.64752156	0.758361	-0.07072134
4.090033756621978e-08	-0.698699	0.7117146	-0.06836103
4.100053190886082e-08	-0.74471027	0.66368204	-0.06580047
4.110022293684194e-08	-0.7855321	0.61510265	-0.0632522
4.120044880933178e-08	-0.821912	0.5658568	-0.060855247
4.130008373857599e-08	-0.85384023	0.516692	-0.058761813
4.140029660267165e-08	-0.8821003	0.4670617	-0.057036858
4.1500551162492565e-08	-0.9068818	0.41712683	-0.055752434
4.160018917075473e-08	-0.928362	0.36701477	-0.054949127
4.170035184946338e-08	-0.9470221	0.3158745	-0.054636765
4.1800019463636864e-08	-0.96280706	0.26390132	-0.054826487
4.190025927466754e-08	-0.9759201	0.21018234	-0.055518705
4.20004044023914e-08	-0.98618287	0.15470527	-0.056699015
4.210004344712196e-08	-0.9933974	0.09738258	-0.058329724
4.2200293703195574e-08	-0.99734515	0.037296288	-0.06037881
4.230046074057164e-08	-0.99757415	-0.025318444	-0.06275277
4.2400076667068125e-08	-0.9936441	-0.09013884	-0.06531581
4.250029697423067e-08	-0.9849949	-0.15768455	-0.06793102
4.2600515245292344e-08	-0.9711593	-0.22705415	-0.07037582
4.270013658530816e-08	-0.95191795	-0.29701763	-0.07241155
4.280031779323573e-08	-0.92692006	-0.36732182	-0.073847726
4.29000060524274e-08	-0.8965788	-0.43600932	-0.07450827
4.3000231075865074e-08	-0.8610395	-0.5025439	-0.07432547
4.3100389375903915e-08	-0.8212023	-0.5654007	-0.073323525
4.320006418327115e-08	-0.7781409	-0.6235133	-0.0716352
4.330030994646497e-08	-0.7323057	-0.6769787	-0.06942888
4.3400484007225516e-08	-0.6848035	-0.7252294	-0.0669301
4.350013238840528e-08	-0.6365316	-0.7681731	-0.06436068
4.3600361347925625e-08	-0.58742803	-0.80655146	-0.061873503
4.3700056120570904e-08	-0.53831327	-0.8403064	-0.059638966
4.38002673304377e-08	-0.48876876	-0.87020504	-0.05773856
4.3900430985786646e-08	-0.4390234	-0.89644575	-0.056257058
4.400011231220064e-08	-0.38913256	-0.91928387	-0.055242628
4.410034617958296e-08	-0.338329	-0.9392212	-0.0547114
4.42004989923433e-08	-0.28662008	-0.9562904	-0.05468282
4.430014557938653e-08	-0.23389025	-0.97052515	-0.05515472
4.4400397669195135e-08	-0.17918886	-0.982057	-0.056124926
4.450004673568315e-08	-0.12282918	-0.99061424	-0.057560652
4.4600177998831054e-08	-0.06389737	-0.9960499	-0.059436567
4.470040409180171e-08	-0.002384629	-0.99796027	-0.061681498
4.4800076608768226e-08	0.061368383	-0.9959129	-0.064175054
4.4900225362192315e-08	0.12789032	-0.98938835	-0.06679554
4.500040466866246e-08	0.19651711	-0.97787887	-0.06934126
4.510008206172127e-08	0.26619464	-0.9610664	-0.07157912
4.520028866865831e-08	0.33668345	-0.9385373	-0.07330739
4.5300445743347494e-08	0.40640527	-0.9104074	-0.07432238
4.540011647986419e-08	0.47381267	-0.8771728	-0.07451053
4.550035594736165e-08	0.5384328	-0.8390932	-0.07385645
4.560000511186707e-08	0.5985592	-0.7974273	-0.072451666
4.5700180439874893e-08	0.6542114	-0.75262254	-0.07044423
4.5800425696625366e-08	0.70476735	-0.7057365	-0.06804566
4.590011055831666e-08	0.74991906	-0.6578231	-0.06548785
4.600028001658949e-08	0.7903425	-0.6089439	-0.06293958
4.610049247380107e-08	0.8261593	-0.5596712	-0.060573388
4.620018409977448e-08	0.857601	-0.5104572	-0.058522247
4.630039576661717e-08	0.8854021	-0.46079993	-0.056850083
4.640002434499318e-08	0.909626	-0.41113004	-0.05563035
4.650023900767205e-08	0.93085945	-0.36065006	-0.054882467
4.66004732788612e-08	0.9491745	-0.30935436	-0.05463313
4.6700114586907526e-08	0.96460897	-0.25723308	-0.054886054
4.6800280671138375e-08	0.97736245	-0.20334621	-0.05564008
4.690053340592171e-08	0.9872686	-0.14755742	-0.05688147
4.700017538015419e-08	0.9940855	-0.08994301	-0.058566928
4.7100312130565416e-08	0.99758625	-0.029607063	-0.060659993
4.720055105705851e-08	0.9973165	0.033379838	-0.06306883
4.730021600588229e-08	0.99282265	0.09854336	-0.065647826
4.7400358144050767e-08	0.98355263	0.16630033	-0.06825167
4.750055520888279e-08	0.9690415	0.23583278	-0.07065864
4.76002368108528e-08	0.94908255	0.30589476	-0.07263005
4.770042365740329e-08	0.9233748	0.37611112	-0.073976174
4.780005596168207e-08	0.8923888	0.44451094	-0.074532315
4.7900277319199394e-08	0.8562649	0.5106437	-0.07424303
4.8000501084870826e-08	0.81591874	0.5730186	-0.073144466
4.8100159460466044e-08	0.77249813	0.63051784	-0.07138146
4.820034367000062e-08	0.7264347	0.68330497	-0.06912758
4.8300027135502416e-08	0.6790072	0.7306881	-0.06661984
4.840027576267936e-08	0.63035506	0.77327776	-0.064037934
4.850044522887217e-08	0.5812347	0.8110508	-0.06157552
4.860010232840514e-08	0.5321145	0.8442658	-0.059380084
4.870036911567962e-08	0.48251963	0.87370205	-0.057527862
4.880001220334542e-08	0.43299603	0.8993843	-0.056108892
4.890017300849286e-08	0.3828016	0.92194635	-0.055148758
4.900043125117712e-08	0.3318847	0.94152194	-0.054680087
4.9100087591602937e-08	0.2802929	0.9581644	-0.05471357
4.920023163308409e-08	0.22711544	0.97212946	-0.055249624
4.930045303078546e-08	0.17219779	0.9832996	-0.05628069
4.940012946165647e-08	0.11554966	0.99147856	-0.05777379
4.9500291764653186e-08	0.05629153	0.99649334	-0.05970087
4.960045621521065e-08	-0.0055095027	0.997929	-0.06198404
4.970013605814483e-08	-0.06958746	0.9953505	-0.06450116
4.980034452964551e-08	-0.13643852	0.98822176	-0.06712502
4.9900484964104665e-08	-0.205259	0.97605723	-0.069644906
5.0000145575764506e-08	-0.2750379	0.9585512	-0.071829095
5.010039612088037e-08	-0.34553343	0.93529856	-0.073477745
5.020003729429045e-08	-0.41471988	0.9066411	-0.07439027
5.030019556465495e-08	-0.482126	0.8726312	-0.07447399
5.0400435925633606e-08	-0.5462728	0.83402	-0.07371775
5.0500105341157964e-08	-0.6058392	0.7919291	-0.07222779
5.060029393910696e-08	-0.6608638	0.74681395	-0.070159115
5.070048063567625e-08	-0.71073776	0.6997544	-0.067728445
5.080015763447967e-08	-0.75525254	0.6517264	-0.065163516
5.090040293430669e-08	-0.79510456	0.60274756	-0.06262829
5.100006885147499e-08	-0.8301857	0.5537133	-0.06030662
5.110024297457149e-08	-0.861289	0.5042404	-0.058289684
5.1200501521301166e-08	-0.8886511	0.45453033	-0.056670345
5.13001645399423e-08	-0.91247445	0.40479165	-0.05550894
5.140031568289747e-08	-0.9333164	0.35425925	-0.054823548
5.150055348035262e-08	-0.9512757	0.3028376	-0.05463751
5.160022635009459e-08	-0.9663693	0.25053242	-0.054953672
5.170037151540818e-08	-0.9787676	0.19644298	-0.05576984
5.1800011617732745e-08	-0.9882536	0.14074552	-0.057061248
5.190026113997896e-08	-0.9947181	0.08249182	-0.058809645
5.200042960606273e-08	-0.99776953	0.02181594	-0.06094841
5.2100044626009875e-08	-0.99700844	-0.041097306	-0.06337273
5.220026838464619e-08	-0.99193156	-0.106926575	-0.06597782
5.230047821552957e-08	-0.9820205	-0.17498438	-0.06857069
5.240009464750232e-08	-0.9669258	-0.2442747	-0.07092384
5.250028399703758e-08	-0.9461695	-0.31473154	-0.07283753
5.260053322129826e-08	-0.91974145	-0.3848801	-0.07409202