# t (s)	mx ()	my ()	mz ()
0	0.099875234	0.94881475	0.29962572
1.0021299222760657e-10	0.21183369	0.96076965	0.17749414
2.0035775379788005e-10	0.2750234	0.9555589	0.104173325
3.005532528241003e-10	0.30985194	0.94868594	0.060037978
4.0024761205675176e-10	0.32797623	0.943889	0.03361321
5.004400765065967e-10	0.33639467	0.94135725	0.017624859
6.000710216186195e-10	0.33897108	0.9405633	0.008046502
7.002669624784504e-10	0.33806923	0.9409202	0.0022339693
8.005163612453732e-10	0.33504704	0.94200355	-0.0012783032
9.001561051273584e-10	0.33075818	0.94351447	-0.0033993102
1.0003018064330805e-09	0.32564372	0.94528806	-0.00470666
1.1005451457732268e-09	0.32000703	0.9472089	-0.0055208327
1.2002193123949071e-09	0.3140585	0.9491968	-0.006039039
1.3003855508324788e-09	0.30783385	0.95123386	-0.006387578
1.400012645799809e-09	0.30145225	0.95327604	-0.006635043
1.5002507131142814e-09	0.29486927	0.9553339	-0.006828065
1.6004620800240547e-09	0.2881388	0.9573867	-0.0069915727
1.700081238866077e-09	0.28130403	0.9594185	-0.0071409815
1.8002719627417026e-09	0.27428266	0.9614506	-0.007287984
1.9005188519571768e-09	0.26710302	0.96347123	-0.007438034
2.000155204400247e-09	0.2598051	0.9654659	-0.0075940886
2.100309561129222e-09	0.25229564	0.96745664	-0.0077606225
2.2005630956553007e-09	0.24459195	0.96943396	-0.007938973
2.3002147481616437e-09	0.23673567	0.9713833	-0.008129324
2.400355389681014e-09	0.22862625	0.9733246	-0.008335044
2.5000100782313587e-09	0.22032681	0.9752375	-0.008555317
2.6002609281890457e-09	0.21172965	0.97714025	-0.008793728
2.7004135448017547e-09	0.20287421	0.97901744	-0.009049936
2.800045617289082e-09	0.1937808	0.9808577	-0.00932392
2.9002853355413737e-09	0.18432519	0.98267806	-0.009620111
3.0004850815348827e-09	0.17454357	0.9844618	-0.009938138
3.1001044560797054e-09	0.1644682	0.986194	-0.010277515
3.200300549542863e-09	0.15395685	0.987888	-0.010643706
3.300542663670331e-09	0.14303473	0.9895264	-0.011036607
3.4001701071539405e-09	0.131749	0.9910895	-0.01145505
3.5003210074245813e-09	0.119941294	0.9925844	-0.011905494
3.600570960064885e-09	0.1076255	0.9939915	-0.012388038
3.7002222615601193e-09	0.09485787	0.99528635	-0.012900792
3.800354914949694e-09	0.08146627	0.9964663	-0.013450941
3.9000015519249335e-09	0.06754426	0.99750006	-0.014034709
4.000255021053912e-09	0.05290099	0.998376	-0.014659944
4.10040518434186e-09	0.037597574	0.99906033	-0.015323609
4.200026785551807e-09	0.02166779	0.9995224	-0.016023222
4.300262200038374e-09	0.004890838	0.99973327	-0.016767021
4.400458543515396e-09	-0.012666251	0.9996513	-0.01754998
4.500069549927714e-09	-0.030933272	0.9992374	-0.01836602
4.600262600945171e-09	-0.050153274	0.99843997	-0.019222153
4.7005012659641756e-09	-0.070254706	0.9972078	-0.020110184
4.800126094175349e-09	-0.09111355	0.99549735	-0.021018494
4.900276107173018e-09	-0.11297306	0.99323046	-0.021950055
5.000525947599846e-09	-0.13574247	0.99034995	-0.022891613
5.1001786175286214e-09	-0.1592363	0.9868177	-0.023825008
5.200317538174004e-09	-0.18367094	0.9825342	-0.024746606
5.300538656310795e-09	-0.20889822	0.9774515	-0.02563664
5.400219621714995e-09	-0.23467961	0.9715538	-0.026472319
5.500384728890186e-09	-0.2611815	0.9647368	-0.027243504
5.600019058248854e-09	-0.28801718	0.95703876	-0.027923409
5.700250505254947e-09	-0.31535304	0.9483553	-0.028500993
5.800467882007427e-09	-0.342871	0.9387323	-0.028954744
5.900101183199003e-09	-0.37024823	0.9282545	-0.029269015
6.00028232133022e-09	-0.3976239	0.91684514	-0.029436942
6.1005392067754114e-09	-0.42469484	0.90461206	-0.029450392
6.200170512643789e-09	-0.45110926	0.89172757	-0.029309634
6.3003313710553025e-09	-0.47702065	0.8781387	-0.02901746
6.4000172760122105e-09	-0.5020329	0.86408746	-0.028585568
6.500258993041667e-09	-0.52628833	0.8495418	-0.028022408
6.600428475193979e-09	-0.5495366	0.8347057	-0.027346846
6.700102178809557e-09	-0.57162106	0.81975794	-0.026580906
6.800353094095541e-09	-0.59273493	0.8046447	-0.025735546
6.9000272679378146e-09	-0.61261433	0.78963816	-0.024839615
7.00019034880334e-09	-0.63147247	0.7746653	-0.02390201
7.100424282234981e-09	-0.649237	0.75986516	-0.022943217
7.200110118615761e-09	-0.6658354	0.7453902	-0.02198414
7.300302531449501e-09	-0.68148404	0.7311372	-0.021027353
7.400493173875099e-09	-0.6961433	0.7172197	-0.020088283
7.500184235859904e-09	-0.70980024	0.70373213	-0.019179743
7.600403104029959e-09	-0.7226505	0.6905544	-0.018298695
7.700052148796506e-09	-0.73460996	0.6778413	-0.017459288
7.800247410210625e-09	-0.7458692	0.6654543	-0.016655128
7.900500326910156e-09	-0.7564213	0.65345603	-0.015892247
8.000178751598654e-09	-0.76625746	0.64191353	-0.015175836
8.10034716705402e-09	-0.77553385	0.6306937	-0.014498085
8.200561661830925e-09	-0.78425163	0.6198376	-0.013861594
8.3002476337064e-09	-0.79240876	0.6093914	-0.013268533
8.400460864485912e-09	-0.80013263	0.5992297	-0.0127110975
8.500115924870248e-09	-0.80737746	0.5894469	-0.012193574
8.600319585081168e-09	-0.8142584	0.5799184	-0.0117083695
8.700019093954734e-09	-0.82073534	0.57072824	-0.0112586925
8.800229535690954e-09	-0.82690334	0.561767	-0.010838053
8.900399630298417e-09	-0.8327533	0.5530702	-0.010447087
9.000085619450922e-09	-0.8382863	0.54465866	-0.010085458
9.100322146204427e-09	-0.84358215	0.53643054	-0.009747696
9.200509465331142e-09	-0.84862804	0.52842224	-0.00943435
9.30017517003177e-09	-0.85342103	0.5206559	-0.009145142
9.40043215413451e-09	-0.85803175	0.5130314	-0.0088753775
9.50008027661839e-09	-0.86242086	0.50562763	-0.008626928
9.600246888262459e-09	-0.86665267	0.49834824	-0.008395712
9.700459362184787e-09	-0.87071925	0.49121708	-0.0081817955
9.800147766363613e-09	-0.8746107	0.48426265	-0.007985199
9.900354649459167e-09	-0.87837905	0.4774015	-0.007802876
1.0000516561274773e-08	-0.88201237	0.47066283	-0.007635057
1.0100197412521529e-08	-0.8855054	0.46406525	-0.007481529
1.0200446858668037e-08	-0.88890344	0.4575301	-0.0073399553
1.0300089542841982e-08	-0.8921749	0.45112497	-0.0072112964
1.0400240578538805e-08	-0.8953638	0.44476932	-0.0070934715
1.0500496589370437e-08	-0.89846355	0.43848103	-0.006986509
1.0600169480359389e-08	-0.9014597	0.4322947	-0.0068905624
1.0700317739798627e-08	-0.90439016	0.42613673	-0.0068041384
1.0800549684517118e-08	-0.9072483	0.42002392	-0.0067272633
1.0900227048783484e-08	-0.9100218	0.41398734	-0.0066599995
1.1000390016991876e-08	-0.9127439	0.40795675	-0.0066013364
1.1100029056043941e-08	-0.9153923	0.40198573	-0.0065515772
1.1200269181930265e-08	-0.9180004	0.39599985	-0.0065099495
1.1300485822863207e-08	-0.9205555	0.39002958	-0.00647659
1.1400110620180939e-08	-0.92304724	0.38410172	-0.006451463
1.1500313357037564e-08	-0.92550814	0.3781397	-0.0064341435
1.1600006262646092e-08	-0.9279146	0.37220138	-0.00642474
1.1700191548650221e-08	-0.93029404	0.36622012	-0.0064231083
1.1800349298715629e-08	-0.93263614	0.3602199	-0.00642929
1.1900032272615214e-08	-0.9349335	0.35422054	-0.006443204
1.2000266660303745e-08	-0.9372121	0.34815314	-0.006465064
1.2100423380686284e-08	-0.9394596	0.34204805	-0.0064948625
1.2200076742169323e-08	-0.94166887	0.33592415	-0.006532508
1.2300329133595626e-08	-0.94386613	0.32970592	-0.0065785823
1.2400491123671113e-08	-0.9460379	0.3234278	-0.006633007
1.2500125560934033e-08	-0.94817626	0.31710958	-0.006695685
1.2600368018886342e-08	-0.95030737	0.3106706	-0.0067675947
1.2700047763567857e-08	-0.95240754	0.30417734	-0.0068481965
1.2800203587682299e-08	-0.9544996	0.29755288	-0.0069386587
1.2900399196535306e-08	-0.9565756	0.29081565	-0.0070390305
1.300008966725619e-08	-0.95862484	0.2839931	-0.007149118
1.3100278271655906e-08	-0.96066874	0.2770059	-0.0072705047
1.3200448059980568e-08	-0.962697	0.26987797	-0.0074031665
1.3300128194873295e-08	-0.9647002	0.26263198	-0.007546968
1.340035100028095e-08	-0.96669924	0.25518045	-0.007704041
1.3500497021371524e-08	-0.96868116	0.24755499	-0.007874195
1.360015433908771e-08	-0.9706373	0.2397745	-0.008057387
1.3700408716956013e-08	-0.9725879	0.23173901	-0.008256457
1.3800049214978941e-08	-0.9745081	0.22352986	-0.0084698945
1.3900189865753498e-08	-0.97641724	0.21503885	-0.008701047
1.4000429222519698e-08	-0.97830546	0.20627983	-0.008950187
1.4100101937156063e-08	-0.9801571	0.19729371	-0.009216674
1.4200242424054008e-08	-0.98198813	0.18796727	-0.009504479
1.4300445412689914e-08	-0.9837862	0.17831412	-0.009813911
1.440012841327048e-08	-0.9855358	0.1683695	-0.010144425
1.4500309448672604e-08	-0.9872488	0.15800731	-0.0105008595
1.4600465758237082e-08	-0.9889083	0.14725277	-0.010883106
1.4700136723509217e-08	-0.9904982	0.13613072	-0.01129083
1.4800364270270047e-08	-0.9920249	0.12449491	-0.011730015
1.4900502178463882e-08	-0.993466	0.11238603	-0.012199759
1.5000154973898602e-08	-0.9948025	0.0998236	-0.012699662
1.5100404529709248e-08	-0.99603236	0.08663607	-0.013236898
1.5200045007909486e-08	-0.99712217	0.0729468	-0.0138066085
1.530017917398914e-08	-0.99806273	0.058568608	-0.014416495
1.5400419252559222e-08	-0.99882376	0.043513943	-0.015065747
1.5500084780770877e-08	-0.99937326	0.027851963	-0.01575056
1.5600221824734482e-08	-0.99968517	0.011381855	-0.016478458
1.5700419098893237e-08	-0.9997198	-0.0058710757	-0.01724652
1.580010033687431e-08	-0.9994381	-0.023836378	-0.018048998
1.5900274404523445e-08	-0.9987923	-0.04272633	-0.018891897
1.6000428263443977e-08	-0.99773294	-0.062475882	-0.019767772
1.610010395253473e-08	-0.9962143	-0.08300706	-0.020667508
1.6200324770618856e-08	-0.99416244	-0.10454144	-0.021593705
1.630045997610102e-08	-0.9915255	-0.12694836	-0.022532031
1.640011393820255e-08	-0.98825663	-0.1501169	-0.023467962
1.6500364613899e-08	-0.98425657	-0.17426836	-0.024398651
1.6600005805926953e-08	-0.9795135	-0.19906318	-0.025297904
1.6700143842947128e-08	-0.97392046	-0.2247065	-0.02615878
1.6800377350706877e-08	-0.9674441	-0.25101176	-0.026959013
1.6900051467281467e-08	-0.9600965	-0.27769232	-0.02767477
1.7000208800895728e-08	-0.95177877	-0.30489594	-0.028294664
1.710039300339731e-08	-0.94251645	-0.3323532	-0.028797323
1.7200080258736495e-08	-0.9323778	-0.35975796	-0.029165572
1.7300295252038926e-08	-0.9212924	-0.38722154	-0.02939108
1.7400444982974803e-08	-0.9093744	-0.4144078	-0.02946375
1.7500118687668846e-08	-0.89675254	-0.4410391	-0.029381668
1.760037366258951e-08	-0.8833822	-0.46723804	-0.029145986
1.7700013508866303e-08	-0.8695256	-0.49254972	-0.028766755
1.780017690236369e-08	-0.85513675	-0.51714057	-0.02825142
1.7900422619544816e-08	-0.84039086	-0.5407934	-0.027616259
1.800010756788501e-08	-0.8254994	-0.56328714	-0.026883746
1.8100291062986564e-08	-0.8104147	-0.5848098	-0.026065249
1.8200471637469755e-08	-0.7953137	-0.60521615	-0.025183672
1.8300161242832577e-08	-0.780362	-0.62440693	-0.024262493
1.8400396906256147e-08	-0.765484	-0.64259064	-0.0233096
1.8500038778816857e-08	-0.7509159	-0.6595858	-0.022351423
1.8600230979207123e-08	-0.7365452	-0.6756246	-0.021390546
1.870049373100273e-08	-0.7224863	-0.6906657	-0.020442951
1.880014791675855e-08	-0.70886374	-0.70466596	-0.019524029
1.8900312891700244e-08	-0.69554603	-0.7178386	-0.018630484
1.900055743594884e-08	-0.68260765	-0.7301752	-0.017771646
1.9100246914377924e-08	-0.67013395	-0.7416601	-0.016956255
1.9200412930625278e-08	-0.6579962	-0.7524684	-0.01617802
1.9300075549749795e-08	-0.64630866	-0.7625478	-0.015445605
1.9400331823776173e-08	-0.63493526	-0.7720593	-0.01475119
1.9500011445317536e-08	-0.62399805	-0.78094006	-0.014102382
1.9600199590813548e-08	-0.6133649	-0.78933233	-0.01349102
1.9700396833645338e-08	-0.6030769	-0.7972325	-0.012919059
1.9800095978463647e-08	-0.59316856	-0.80464303	-0.012387465
1.9900323580942927e-08	-0.58352214	-0.81167614	-0.011888951
2.0000505932048207e-08	-0.5741789	-0.8183216	-0.011424734
2.0100176578765987e-08	-0.5651638	-0.8245823	-0.010994768
2.0200436865106528e-08	-0.5563616	-0.83055496	-0.010592428
2.030009606759782e-08	-0.54786146	-0.8361939	-0.010220649
2.0400272160654137e-08	-0.5395524	-0.8415863	-0.009873435
2.0500510843932018e-08	-0.53145945	-0.8467269	-0.009550894
2.0600184461026608e-08	-0.5236176	-0.85160476	-0.00925325
2.070036002822651e-08	-0.5159291	-0.85629046	-0.008975805
2.080001868939368e-08	-0.50845945	-0.8607523	-0.008719978
2.090027822933863e-08	-0.50111234	-0.8650554	-0.008481623
2.1000467682322156e-08	-0.4939266	-0.86918336	-0.008261269
2.1100098367265365e-08	-0.48692435	-0.87312996	-0.0080587305
2.12003275995608e-08	-0.48001352	-0.87695277	-0.007870639
2.1300016681415256e-08	-0.47326222	-0.88061875	-0.0076982165
2.1400190089569037e-08	-0.46659118	-0.8841755	-0.007538826
2.150037962210494e-08	-0.46002284	-0.8876146	-0.0073925285
2.1600072508302812e-08	-0.45358086	-0.89092743	-0.007259275
2.170027373408572e-08	-0.44719163	-0.89415514	-0.0071370765
2.1800436142132225e-08	-0.44088197	-0.89728653	-0.007026106
2.1900115269807494e-08	-0.4346711	-0.9003149	-0.006926241
2.2000353930249638e-08	-0.42848626	-0.90327805	-0.0068359775
2.2100501912588318e-08	-0.42236024	-0.9061619	-0.0067555555
2.2200165779253844e-08	-0.41630906	-0.9089608	-0.0066848323
2.230042641129456e-08	-0.4102598	-0.91170996	-0.0066227326
2.24000849467472e-08	-0.4042777	-0.9143813	-0.006569718
2.2500221841441392e-08	-0.39829063	-0.91700774	-0.006524951
2.2600464583309374e-08	-0.3923142	-0.91958314	-0.0064884583
2.2700138074452435e-08	-0.38638145	-0.9220942	-0.006460259
2.280029796500838e-08	-0.38042256	-0.92457116	-0.0064399256
2.2900521712312738e-08	-0.37445587	-0.92700636	-0.006427498
2.3000203522791282e-08	-0.36851054	-0.9293882	-0.0064229323
2.3100382007473866e-08	-0.36251765	-0.93174446	-0.0064261444
2.3200013711609952e-08	-0.35653266	-0.9340533	-0.006437092
2.3300250303763654e-08	-0.3504792	-0.9363438	-0.006455943
2.340045857128271e-08	-0.34438783	-0.9386036	-0.0064827153
2.3500087872900023e-08	-0.3382851	-0.9408224	-0.0065172864
2.3600297254080322e-08	-0.33209234	-0.94302833	-0.0065601943
2.3700544116195436e-08	-0.3258347	-0.94521064	-0.0066114427
2.3800180929336984e-08	-0.3195451	-0.94735754	-0.0066708354
2.3900343568754522e-08	-0.31314346	-0.9494947	-0.0067392834
2.4000032928138182e-08	-0.30668503	-0.95160234	-0.006816385
2.410025118111247e-08	-0.30009565	-0.95370257	-0.0069032414
2.4200398930455935e-08	-0.2934046	-0.955784	-0.006999758
2.4300062399277933e-08	-0.28663057	-0.957839	-0.007105863
2.4400308818542874e-08	-0.27969036	-0.95989	-0.0072231567
2.4500460459676802e-08	-0.27261895	-0.9619238	-0.0073514297
2.4600107974469335e-08	-0.26543495	-0.96393234	-0.007490611
2.470035859159889e-08	-0.2580462	-0.9659378	-0.0076428726
2.4800017305802627e-08	-0.25052786	-0.96791613	-0.007807082
2.4900157314506253e-08	-0.24278548	-0.9698881	-0.007985711
2.5000383503747876e-08	-0.23483352	-0.97184515	-0.008178974
2.510005926232662e-08	-0.22670841	-0.9737733	-0.008386425
2.520022128791104e-08	-0.21830945	-0.975691	-0.0086111445
2.5300392300225942e-08	-0.20965736	-0.9775871	-0.00885321
2.540007403348704e-08	-0.20077837	-0.9794493	-0.009112412
2.5500286817117234e-08	-0.19156154	-0.9812934	-0.009392596
2.560043529721407e-08	-0.18203834	-0.9831041	-0.009693526
2.570010222070023e-08	-0.17222852	-0.9848693	-0.0100151375
2.5800343254339605e-08	-0.16200359	-0.9866015	-0.010362325
2.5900477105565147e-08	-0.15140495	-0.98828185	-0.010734421
2.600012634263944e-08	-0.14044888	-0.9898961	-0.011131406
2.6100376265943305e-08	-0.12898648	-0.9914522	-0.0115593225
2.6200023860892733e-08	-0.11712511	-0.9929199	-0.012014731
2.6300158029074348e-08	-0.10470383	-0.9943024	-0.01250429
2.640039582378515e-08	-0.091731966	-0.995578	-0.013028132
2.6500063718869397e-08	-0.07826549	-0.99672127	-0.01358414
2.66002032091684e-08	-0.064128205	-0.99772376	-0.014179602
2.6700400079856704e-08	-0.049336433	-0.9985565	-0.014813667
2.680008130127134e-08	-0.033941578	-0.999189	-0.015483469
2.6900256880492818e-08	-0.017750133	-0.9995969	-0.01619637
2.7000409082991674e-08	-0.0008036938	-0.99974185	-0.016948983
2.710008438273131e-08	0.016850319	-0.9995862	-0.017736893
2.720030555264534e-08	0.03542613	-0.9990845	-0.018566532
2.7300436587154732e-08	0.054839354	-0.99818915	-0.01943002
2.7400088923892252e-08	0.07502899	-0.99685514	-0.020319466
2.7500341430650365e-08	0.09622882	-0.9950104	-0.021238571
2.7600488290186634e-08	0.11829946	-0.99260426	-0.022173189
2.770011763646092e-08	0.14113249	-0.98959005	-0.023109442
2.7800358129506417e-08	0.16496326	-0.98586977	-0.02404581
2.790002452327194e-08	0.18946892	-0.98142576	-0.02495701
2.8000167835972073e-08	0.21484554	-0.9761546	-0.025836393
2.8100378645624263e-08	0.24091356	-0.9700195	-0.026662106
2.8200060574040284e-08	0.26741067	-0.96302193	-0.027410764
2.8300238126303622e-08	0.2944855	-0.9550616	-0.028070953
2.8400409034158305e-08	0.3218635	-0.94615936	-0.028620299
2.850008758791339e-08	0.34925336	-0.93637145	-0.029040596
2.8600323827222142e-08	0.37677598	-0.9256198	-0.029322684
2.8700473432940024e-08	0.40408134	-0.91401434	-0.029454237
2.8800131269399463e-08	0.43089047	-0.9016754	-0.029431274
2.890038860010122e-08	0.4573326	-0.8885511	-0.029253606
2.9000054136496543e-08	0.4829443	-0.87489545	-0.028928638
2.9100208216476617e-08	0.5078726	-0.86067	-0.02846309
2.9200441143255987e-08	0.5318983	-0.84604347	-0.02787162
2.9300123553812743e-08	0.55479175	-0.831226	-0.027175564
2.940033427804432e-08	0.57673943	-0.81616974	-0.026386093
2.9500512324982898e-08	0.5975728	-0.8010637	-0.025526365
2.9600215823010126e-08	0.6171926	-0.7860707	-0.024619749
2.97004400164404e-08	0.6357972	-0.7711259	-0.023675224
2.9800104292091678e-08	0.65320575	-0.75646234	-0.022719314
2.990029986315502e-08	0.6696417	-0.7419788	-0.021755964
3.000055958833009e-08	0.685061	-0.7277929	-0.02080188
3.010021450030179e-08	0.69941795	-0.7140327	-0.019873256
3.0200393020789274e-08	0.71292955	-0.70056754	-0.018967384
3.030006056660543e-08	0.72551155	-0.68755335	-0.018099463
3.040032096667532e-08	0.73735887	-0.6748555	-0.017264089
3.050050585959634e-08	0.7484423	-0.6625642	-0.01646983
3.060015597046204e-08	0.7587719	-0.65072984	-0.015721416
3.0700379468905543e-08	0.7685143	-0.6392145	-0.015011052
3.080007355789631e-08	0.7776109	-0.62813526	-0.014346319
3.0900282832174814e-08	0.7862037	-0.61736375	-0.013719377
3.100044848326045e-08	0.7942842	-0.60694873	-0.013132736
3.110012384244135e-08	0.80186063	-0.5969189	-0.012587118
3.120038787680741e-08	0.8090515	-0.58715045	-0.0120749045
3.1300063076194696e-08	0.81580627	-0.5777421	-0.011600239
3.140023084089215e-08	0.82223046	-0.5685753	-0.011156015
3.1500444203609926e-08	0.8283213	-0.55967724	-0.0107425405
3.160013224336148e-08	0.8340729	-0.5510809	-0.010360086
3.17003301647502e-08	0.8395693	-0.54268163	-0.010002859
3.180052743141041e-08	0.8448025	-0.5345093	-0.009671146
3.190021814034565e-08	0.8497683	-0.526589	-0.0093647875
3.2000453308799795e-08	0.8545375	-0.51882374	-0.0090790335
3.2100082514831723e-08	0.8590723	-0.5112893	-0.008815709
3.220029581508924e-08	0.8634426	-0.5038829	-0.008570334
3.230055511389736e-08	0.86763734	-0.49663392	-0.008343151
3.240020744100674e-08	0.87164384	-0.48957658	-0.00813435
3.2500358138257834e-08	0.8755186	-0.48262137	-0.007940533
3.2600021235966674e-08	0.8792343	-0.47582626	-0.007762649
3.2700283802975835e-08	0.8828417	-0.46910715	-0.0075979023
3.280045011042289e-08	0.8863239	-0.4625019	-0.0074467184
3.29000869296035e-08	0.8896755	-0.45602876	-0.007308908
3.3000338965575353e-08	0.8929428	-0.44960457	-0.0071822233
3.310001374424986e-08	0.8960943	-0.4432972	-0.0070675896
3.320016690446695e-08	0.8991703	-0.43703142	-0.0069632097
3.330038088306275e-08	0.9021633	-0.4308258	-0.006869132
3.340006850854982e-08	0.9050624	-0.4247086	-0.006785388
3.350026368274938e-08	0.90790284	-0.41860867	-0.006710729
3.360044228865079e-08	0.9106746	-0.41255075	-0.0066452613
3.370012353480996e-08	0.91336936	-0.40655643	-0.006588927
3.380036062897582e-08	0.9160198	-0.40055513	-0.0065408857
3.390051363820403e-08	0.91861284	-0.39457843	-0.0065012737
3.400017493093238e-08	0.9211421	-0.3886435	-0.006470001
3.410042654846695e-08	0.9236385	-0.382679	-0.0064466014
3.420008555272263e-08	0.9260761	-0.37674832	-0.006431234
3.430023109570584e-08	0.92848396	-0.37078047	-0.0064236363
3.440045386007418e-08	0.9308553	-0.36479267	-0.006423866
3.450013298815158e-08	0.93317795	-0.35881525	-0.0064318525
3.460030825753515e-08	0.935479	-0.35277867	-0.0064476966
3.470049157790074e-08	0.93774927	-0.3467049	-0.0064714327
3.4800174255970614e-08	0.9399797	-0.34061772	-0.0065029636
3.4900397332634185e-08	0.9421953	-0.3344459	-0.006542752
3.5000023636040805e-08	0.94437325	-0.32825193	-0.006590484
3.5100205983081155e-08	0.94654006	-0.32195607	-0.0066469004
3.5200457877468384e-08	0.9486869	-0.31558007	-0.0067120357
3.5300100684046627e-08	0.9508007	-0.30915898	-0.0067856433
3.540025857664754e-08	0.9529066	-0.30261177	-0.006868833
3.550051472499017e-08	0.9549967	-0.29595533	-0.0069616972
3.5600175393641126e-08	0.9570576	-0.2892268	-0.007063909
3.570032275489087e-08	0.95911247	-0.28234315	-0.0071769953
3.5800536945566796e-08	0.9611532	-0.27532133	-0.0073010563
3.590022445121066e-08	0.96316814	-0.26819262	-0.0074358135
3.600040196199426e-08	0.96517783	-0.26087242	-0.0075832233
3.6100029945366754e-08	0.96716136	-0.25342423	-0.007742391
3.6200260253319334e-08	0.9691412	-0.24574848	-0.00791588
3.630047137993917e-08	0.9711043	-0.23787686	-0.008103504
3.640009377312816e-08	0.9730384	-0.22984084	-0.008304918
3.650027786059904e-08	0.9749643	-0.22153167	-0.008523356
3.660053104395051e-08	0.97687054	-0.21297093	-0.008758901
3.6700166132496286e-08	0.97874147	-0.20420107	-0.009010864
3.680030886335806e-08	0.9805954	-0.1951041	-0.009283233
3.6900555700368194e-08	0.98242056	-0.1856933	-0.009576334
3.700022056060168e-08	0.9842003	-0.17601332	-0.009889345
3.710035722990451e-08	0.9859478	-0.16593882	-0.010226953
3.7200565640529247e-08	0.98764926	-0.1554822	-0.010589512
3.730024459587902e-08	0.9892872	-0.14468224	-0.010976253
3.740042195116938e-08	0.99086916	-0.13339964	-0.011392787
3.750003817350336e-08	0.9923679	-0.121724464	-0.011836379
3.7600254262546446e-08	0.99378854	-0.10948892	-0.012313947
3.770047571707628e-08	0.99510705	-0.09672789	-0.012824672
3.780009440048569e-08	0.99629974	-0.083489195	-0.013366833
3.7900262968964736e-08	0.9973609	-0.069584176	-0.013948256
3.8000513996221156e-08	0.9982618	-0.055035006	-0.0145679815
3.810014931537514e-08	0.99897206	-0.039910622	-0.01522254
3.820028409630159e-08	0.99947053	-0.024005072	-0.015919968
3.8300527064754185e-08	0.9997201	-0.007336625	-0.016658148
3.840018920319733e-08	0.9996837	0.010010687	-0.017431313
3.8500323965982586e-08	0.99931926	0.028252453	-0.018246282
3.86005284283634e-08	0.9985794	0.047351647	-0.01909769
3.870020946667232e-08	0.9974203	0.06721364	-0.019976562
3.88003796546799e-08	0.9957754	0.08805669	-0.02088652
3.890053680024785e-08	0.99359095	0.10979011	-0.02181607
3.900021239985876e-08	0.99081933	0.13230136	-0.022751633
3.910044096573312e-08	0.98736906	0.15580657	-0.023691643
3.920006523122466e-08	0.983218	0.1799989	-0.024611857
3.930023221715046e-08	0.97825956	0.20510256	-0.02550732
3.940048670672272e-08	0.97245455	0.23093674	-0.026356261
3.950013437886018e-08	0.9658044	0.25722253	-0.027134627
3.960027424409296e-08	0.9582032	0.28413314	-0.027831951
3.970051750199385e-08	0.9496535	0.31143293	-0.028425932
3.980019560037286e-08	0.9402177	0.33878627	-0.028896105
3.9900349809357413e-08	0.9298167	0.36631447	-0.029232811
4.000054861843856e-08	0.91852725	0.39372748	-0.029422427
4.010024205495206e-08	0.9064763	0.42070407	-0.029458318
4.020044183803207e-08	0.89361954	0.4473508	-0.029339183
4.0300079282227076e-08	0.88018763	0.47322893	-0.029069861
4.040029090619958e-08	0.8661326	0.49849433	-0.028655577
4.0500536610416634e-08	0.851639	0.522885	-0.028109828
4.0600191342376896e-08	0.8369158	0.5461615	-0.027452862
4.070036184098092e-08	0.8219141	0.5685125	-0.026695585
4.0800049476648184e-08	0.80689126	0.58966875	-0.025864596
4.0900306257424794e-08	0.7917886	0.60982794	-0.024970362
4.100048621132675e-08	0.7767935	0.62884825	-0.024036823
4.110013771784535e-08	0.762049	0.6466677	-0.023085568
4.1200392239580474e-08	0.7474526	0.66351503	-0.02212097
4.130008137053298e-08	0.7332263	0.6792317	-0.021167258
4.140025642947271e-08	0.71925986	0.69403136	-0.020225149
4.150047578283394e-08	0.7056471	0.707893	-0.019307587
4.160016834995781e-08	0.69248295	0.7207993	-0.018426182
4.1700383191891644e-08	0.67964065	0.73294264	-0.017576454
4.180003295117533e-08	0.66726434	0.7442476	-0.016770804
4.190021352726049e-08	0.655217	0.7548939	-0.016002262
4.200046834103143e-08	0.64355177	0.7648798	-0.01527555
4.210014216135531e-08	0.6323334	0.7741953	-0.014595103
4.22003327219339e-08	0.6214267	0.78299105	-0.013952719
4.2300526876860846e-08	0.6108769	0.7912624	-0.013350889
4.2400217421529264e-08	0.6007203	0.7990125	-0.012790874
4.250043301280069e-08	0.5908365	0.8063596	-0.0122652
4.2600085648266616e-08	0.58131707	0.8132591	-0.011777724
4.270030995606699e-08	0.57203734	0.8198222	-0.011320983
4.280056433202075e-08	0.563034	0.8260401	-0.010895824
4.2900217311041013e-08	0.5543456	0.83190364	-0.010502754
4.3000373330846646e-08	0.54585993	0.83750355	-0.010135548
4.310004059971417e-08	0.5376462	0.842807	-0.009796081
4.3200295970951784e-08	0.5296015	0.8478916	-0.009479056
4.3300472818264084e-08	0.52176696	0.85274124	-0.009185174
4.3400125185086746e-08	0.5141622	0.8573538	-0.008914067
4.3500365100592335e-08	0.50668967	0.86179656	-0.008661355
4.36000520410453e-08	0.49942225	0.8660334	-0.00842865
4.37002183869405e-08	0.49227285	0.87012213	-0.008212346
4.3800445214852595e-08	0.4852612	0.87405646	-0.0080123935
4.390013285934595e-08	0.47841755	0.8778254	-0.007828871
4.4000301960213374e-08	0.4716614	0.88147813	-0.007658977
4.410049917994926e-08	0.46501437	0.8850068	-0.0075027505
4.4200195850218014e-08	0.4585014	0.88840234	-0.0073601506
4.4300388150904244e-08	0.4520482	0.89170694	-0.0072290627
4.4400027511022136e-08	0.4457136	0.8948935	-0.007110228
4.4500232169563386e-08	0.43941817	0.8980051	-0.007001742
4.460048159624537e-08	0.43318692	0.9010307	-0.006903754
4.470012663187856e-08	0.42705187	0.90395784	-0.006816355
4.480028414098868e-08	0.42093658	0.90682477	-0.0067381463
4.4900538790220976e-08	0.4148592	0.9096241	-0.006669177
4.50002047086533e-08	0.40885383	0.9123421	-0.0066095316
4.510035323231409e-08	0.40284863	0.91501236	-0.006558284
4.52000094504079e-08	0.3968949	0.9176134	-0.006515698
4.5300263412902955e-08	0.39092064	0.9201771	-0.00648112
4.5400438666563456e-08	0.38495925	0.92268956	-0.006454681
4.550006682490687e-08	0.37903175	0.92514277	-0.0064363168
4.560031468574446e-08	0.37306172	0.9275688	-0.006425726
4.5700528062272613e-08	0.3670811	0.9299542	-0.0064229816
4.5800161943112286e-08	0.36111555	0.9322894	-0.006428017
4.5900336950912375e-08	0.35509095	0.9346029	-0.0064408765
4.6000023060953456e-08	0.34906206	0.9368736	-0.006461476
4.6100239950222454e-08	0.34295994	0.9391268	-0.00649011
4.620038976955528e-08	0.33681312	0.94135094	-0.0065267785
4.630005274317513e-08	0.33064014	0.94353884	-0.006571387
4.64003107237594e-08	0.32436606	0.9457162	-0.006624612
4.650047673805316e-08	0.31802517	0.9478693	-0.0066863657
4.660010741560381e-08	0.31163782	0.9499904	-0.006756543
4.67003419303395e-08	0.30512205	0.9521049	-0.006836243
4.680002192451376e-08	0.29854393	0.9541899	-0.006924881
4.6900187218866835e-08	0.29182553	0.9562677	-0.0070237415
4.700037794002763e-08	0.28498667	0.9583297	-0.0071328655
4.710006643819694e-08	0.27805376	0.9603659	-0.0072520627
4.720025287381768e-08	0.27094615	0.9623966	-0.007383044
4.730042902752185e-08	0.26368704	0.9644121	-0.0075258063
4.740010344390225e-08	0.256301	0.96640265	-0.0076801665
4.7500332205612584e-08	0.24869645	0.96838856	-0.007848474
4.760047630779351e-08	0.24090669	0.97035676	-0.008030491
4.770012253145715e-08	0.2329509	0.97229826	-0.008226156
4.78003772562979e-08	0.22472468	0.97423303	-0.008438577
4.790002431994764e-08	0.21631114	0.9761362	-0.008666116
4.8000170469795417e-08	0.2075996	0.9780262	-0.008912328
4.8100412114175515e-08	0.19860372	0.97989255	-0.009177512
4.820008486079675e-08	0.18936509	0.9817195	-0.009460991
4.830022862031397e-08	0.17976618	0.98352206	-0.009766987
4.8400429490326076e-08	0.16982117	0.9852869	-0.010095799
4.8500111844913396e-08	0.15956523	0.98699844	-0.010446845
4.8600291587380915e-08	0.14886798	0.9886667	-0.010825252
4.87004438475012e-08	0.13775513	0.9902741	-0.011230846
4.880011828156506e-08	0.12625067	0.9918035	-0.011663265
4.8900348146801927e-08	0.11420403	0.99325925	-0.012128738
4.900048384270583e-08	0.10165737	0.99461734	-0.012626211
4.910013026068639e-08	0.08863089	0.9958576	-0.013155127
4.920038328646088e-08	0.074944906	0.99697495	-0.013722986
4.93000259228627e-08	0.060729247	0.9979347	-0.01432437
4.940016018009427e-08	0.045790385	0.9987232	-0.014967139
4.9500395704633543e-08	0.030142805	0.9993084	-0.015650045
4.960006472801105e-08	0.013858127	0.9996557	-0.016368743
4.97002033909672e-08	-0.0032684617	0.99973375	-0.017130498
4.980039624221723e-08	-0.021206621	0.9994996	-0.017931545
4.990007751272728e-08	-0.039880745	0.99891245	-0.018765152
5.000025681253428e-08	-0.059506346	0.99791735	-0.019636577
5.0100406832372616e-08	-0.08000618	0.99646294	-0.020536814
5.0200082157430635e-08	-0.101293765	0.9945022	-0.021455284
5.030030806472685e-08	-0.123589575	0.99195355	-0.022393135
5.040044544435288e-08	-0.14674488	0.98876685	-0.023334008
5.0500098418713526e-08	-0.17063229	0.9848978	-0.024261575
5.060034799877517e-08	-0.19546609	0.9802419	-0.025171062
5.070050458348838e-08	-0.22101533	0.974769	-0.026039284
5.080013877305637e-08	-0.24707739	0.96846086	-0.026844775
5.0900382246295994e-08	-0.27384123	0.9612061	-0.02757753
5.100005377093418e-08	-0.30086446	0.9530649	-0.028209945
5.11002158235022e-08	-0.32828897	0.9439434	-0.028730873
5.1200389840010075e-08	-0.35582548	0.93388855	-0.0291211
5.130008350737231e-08	-0.38316932	0.92298746	-0.029367065
5.1400297884091594e-08	-0.41042224	0.9111818	-0.029462721
5.150045576642893e-08	-0.4372552	0.8986044	-0.029402848
5.1600131009224504e-08	-0.46339732	0.88540316	-0.029190462
5.1700372748818464e-08	-0.48897666	0.8715393	-0.028829645
5.180001126540828e-08	-0.51356924	0.8572849	-0.028335627
5.190016937820068e-08	-0.53734887	0.84259546	-0.027717676